 Entering Gaussian System, Link 0=g16
 Input=gjfs/data_set_12-dimer-nBA_opt.gjf
 Output=gjfs/data_set_12-dimer-nBA_opt.log
 Initial command:
 /usr/local/intel/g16/l1.exe "/scr/Gau-256317.inp" -scrdir="/scr/"
 Entering Link 1 = /usr/local/intel/g16/l1.exe PID=    256326.
  
 Copyright (c) 1988-2019, Gaussian, Inc.  All Rights Reserved.
  
 This is part of the Gaussian(R) 16 program.  It is based on
 the Gaussian(R) 09 system (copyright 2009, Gaussian, Inc.),
 the Gaussian(R) 03 system (copyright 2003, Gaussian, Inc.),
 the Gaussian(R) 98 system (copyright 1998, Gaussian, Inc.),
 the Gaussian(R) 94 system (copyright 1995, Gaussian, Inc.),
 the Gaussian 92(TM) system (copyright 1992, Gaussian, Inc.),
 the Gaussian 90(TM) system (copyright 1990, Gaussian, Inc.),
 the Gaussian 88(TM) system (copyright 1988, Gaussian, Inc.),
 the Gaussian 86(TM) system (copyright 1986, Carnegie Mellon
 University), and the Gaussian 82(TM) system (copyright 1983,
 Carnegie Mellon University). Gaussian is a federally registered
 trademark of Gaussian, Inc.
  
 This software contains proprietary and confidential information,
 including trade secrets, belonging to Gaussian, Inc.
  
 This software is provided under written license and may be
 used, copied, transmitted, or stored only in accord with that
 written license.
  
 The following legend is applicable only to US Government
 contracts under FAR:
  
                    RESTRICTED RIGHTS LEGEND
  
 Use, reproduction and disclosure by the US Government is
 subject to restrictions as set forth in subparagraphs (a)
 and (c) of the Commercial Computer Software - Restricted
 Rights clause in FAR 52.227-19.
  
 Gaussian, Inc.
 340 Quinnipiac St., Bldg. 40, Wallingford CT 06492
  
  
 ---------------------------------------------------------------
 Warning -- This program may not be used in any manner that
 competes with the business of Gaussian, Inc. or will provide
 assistance to any competitor of Gaussian, Inc.  The licensee
 of this program is prohibited from giving any competitor of
 Gaussian, Inc. access to this program.  By using this program,
 the user acknowledges that Gaussian, Inc. is engaged in the
 business of creating and licensing software in the field of
 computational chemistry and represents and warrants to the
 licensee that it is not a competitor of Gaussian, Inc. and that
 it will not use this program in any manner prohibited above.
 ---------------------------------------------------------------
  

 Cite this work as:
 Gaussian 16, Revision C.01,
 M. J. Frisch, G. W. Trucks, H. B. Schlegel, G. E. Scuseria, 
 M. A. Robb, J. R. Cheeseman, G. Scalmani, V. Barone, 
 G. A. Petersson, H. Nakatsuji, X. Li, M. Caricato, A. V. Marenich, 
 J. Bloino, B. G. Janesko, R. Gomperts, B. Mennucci, H. P. Hratchian, 
 J. V. Ortiz, A. F. Izmaylov, J. L. Sonnenberg, D. Williams-Young, 
 F. Ding, F. Lipparini, F. Egidi, J. Goings, B. Peng, A. Petrone, 
 T. Henderson, D. Ranasinghe, V. G. Zakrzewski, J. Gao, N. Rega, 
 G. Zheng, W. Liang, M. Hada, M. Ehara, K. Toyota, R. Fukuda, 
 J. Hasegawa, M. Ishida, T. Nakajima, Y. Honda, O. Kitao, H. Nakai, 
 T. Vreven, K. Throssell, J. A. Montgomery, Jr., J. E. Peralta, 
 F. Ogliaro, M. J. Bearpark, J. J. Heyd, E. N. Brothers, K. N. Kudin, 
 V. N. Staroverov, T. A. Keith, R. Kobayashi, J. Normand, 
 K. Raghavachari, A. P. Rendell, J. C. Burant, S. S. Iyengar, 
 J. Tomasi, M. Cossi, J. M. Millam, M. Klene, C. Adamo, R. Cammi, 
 J. W. Ochterski, R. L. Martin, K. Morokuma, O. Farkas, 
 J. B. Foresman, and D. J. Fox, Gaussian, Inc., Wallingford CT, 2019.
 
 ******************************************
 Gaussian 16:  ES64L-G16RevC.01  3-Jul-2019
                 7-Jan-2025 
 ******************************************
 %nprocshared=20
 Will use up to   20 processors via shared memory.
 %mem=30GB
 %chk=outputs/data_set_12-dimer-nBA_opt.chk
 ----------------------------------
 #p M062X/DEF2TZVP opt freq pop=NBO
 ----------------------------------
 1/18=20,19=15,26=3,38=1/1,3;
 2/9=110,12=2,17=6,18=5,40=1/2;
 3/5=44,7=101,11=2,25=1,30=1,71=1,74=-55/1,2,3;
 4//1;
 5/5=2,38=5/2;
 6/7=2,8=2,9=2,10=2,28=1,40=1/1,7;
 7//1,2,3,16;
 1/18=20,19=15,26=3/3(2);
 2/9=110/2;
 99//99;
 2/9=110/2;
 3/5=44,7=101,11=2,25=1,30=1,71=1,74=-55/1,2,3;
 4/5=5,16=3,69=1/1;
 5/5=2,38=5/2;
 7//1,2,3,16;
 1/18=20,19=15,26=3/3(-5);
 2/9=110/2;
 6/7=2,8=2,9=2,10=2,19=2,28=1,40=1/1,7;
 99/9=1/99;
 Leave Link    1 at Tue Jan  7 16:43:06 2025, MaxMem=  4026531840 cpu:               0.7 elap:               0.1
 (Enter /usr/local/intel/g16/l101.exe)
 -------------------------
 data_set_12-dimer-nBA_opt
 -------------------------
 Symbolic Z-matrix:
 Charge =  0 Multiplicity = 2
 C                    -2.22299  -1.39329  -0.0001 
 C                    -1.96431   0.07875   0.00011 
 C                    -0.65024   0.68383   0.00001 
 O                    -0.4431    1.92019  -0.00025 
 O                     0.38342  -0.23235   0.00029 
 C                     1.75067   0.3056    0.00028 
 C                     2.69306  -0.88825  -0.00026 
 H                    -2.81523  -1.6797   -0.87967 
 H                    -2.81371  -1.6802    0.88036 
 H                    -1.29164  -1.96043  -0.00092 
 H                    -2.79334   0.78078  -0.00007 
 H                     1.87906   0.9351    0.88642 
 H                     1.87883   0.93573  -0.88544 
 H                     2.53227  -1.50611  -0.88805 
 H                     2.53247  -1.50675   0.88711 
 H                     3.73153  -0.54098  -0.00025 
 
 ITRead=  0  0  0  0  0  0  0  0  0  0  0  0  0  0  0  0
 MicOpt= -1 -1 -1 -1 -1 -1 -1 -1 -1 -1 -1 -1 -1 -1 -1 -1
 NAtoms=     16 NQM=       16 NQMF=       0 NMMI=      0 NMMIF=      0
                NMic=       0 NMicF=      0.
                    Isotopes and Nuclear Properties:
 (Nuclear quadrupole moments (NQMom) in fm**2, nuclear magnetic moments (NMagM)
  in nuclear magnetons)

  Atom         1           2           3           4           5           6           7           8           9          10
 IAtWgt=          12          12          12          16          16          12          12           1           1           1
 AtmWgt=  12.0000000  12.0000000  12.0000000  15.9949146  15.9949146  12.0000000  12.0000000   1.0078250   1.0078250   1.0078250
 NucSpn=           0           0           0           0           0           0           0           1           1           1
 AtZEff=  -0.0000000  -0.0000000  -0.0000000  -0.0000000  -0.0000000  -0.0000000  -0.0000000  -0.0000000  -0.0000000  -0.0000000
 NQMom=    0.0000000   0.0000000   0.0000000   0.0000000   0.0000000   0.0000000   0.0000000   0.0000000   0.0000000   0.0000000
 NMagM=    0.0000000   0.0000000   0.0000000   0.0000000   0.0000000   0.0000000   0.0000000   2.7928460   2.7928460   2.7928460
 AtZNuc=   6.0000000   6.0000000   6.0000000   8.0000000   8.0000000   6.0000000   6.0000000   1.0000000   1.0000000   1.0000000

  Atom        11          12          13          14          15          16
 IAtWgt=           1           1           1           1           1           1
 AtmWgt=   1.0078250   1.0078250   1.0078250   1.0078250   1.0078250   1.0078250
 NucSpn=           1           1           1           1           1           1
 AtZEff=  -0.0000000  -0.0000000  -0.0000000  -0.0000000  -0.0000000  -0.0000000
 NQMom=    0.0000000   0.0000000   0.0000000   0.0000000   0.0000000   0.0000000
 NMagM=    2.7928460   2.7928460   2.7928460   2.7928460   2.7928460   2.7928460
 AtZNuc=   1.0000000   1.0000000   1.0000000   1.0000000   1.0000000   1.0000000
 Leave Link  101 at Tue Jan  7 16:43:08 2025, MaxMem=  4026531840 cpu:              16.5 elap:               1.0
 (Enter /usr/local/intel/g16/l103.exe)

 GradGradGradGradGradGradGradGradGradGradGradGradGradGradGradGradGradGrad
 Berny optimization.
 Initialization pass.
                           ----------------------------
                           !    Initial Parameters    !
                           ! (Angstroms and Degrees)  !
 --------------------------                            --------------------------
 ! Name  Definition              Value          Derivative Info.                !
 --------------------------------------------------------------------------------
 ! R1    R(1,2)                  1.4946         estimate D2E/DX2                !
 ! R2    R(1,8)                  1.0984         estimate D2E/DX2                !
 ! R3    R(1,9)                  1.0984         estimate D2E/DX2                !
 ! R4    R(1,10)                 1.0904         estimate D2E/DX2                !
 ! R5    R(2,3)                  1.4467         estimate D2E/DX2                !
 ! R6    R(2,11)                 1.0863         estimate D2E/DX2                !
 ! R7    R(3,4)                  1.2536         estimate D2E/DX2                !
 ! R8    R(3,5)                  1.3812         estimate D2E/DX2                !
 ! R9    R(5,6)                  1.4693         estimate D2E/DX2                !
 ! R10   R(6,7)                  1.521          estimate D2E/DX2                !
 ! R11   R(6,12)                 1.0945         estimate D2E/DX2                !
 ! R12   R(6,13)                 1.0945         estimate D2E/DX2                !
 ! R13   R(7,14)                 1.0935         estimate D2E/DX2                !
 ! R14   R(7,15)                 1.0935         estimate D2E/DX2                !
 ! R15   R(7,16)                 1.095          estimate D2E/DX2                !
 ! A1    A(2,1,8)              110.503          estimate D2E/DX2                !
 ! A2    A(2,1,9)              110.5017         estimate D2E/DX2                !
 ! A3    A(2,1,10)             111.3726         estimate D2E/DX2                !
 ! A4    A(8,1,9)              106.4873         estimate D2E/DX2                !
 ! A5    A(8,1,10)             108.9233         estimate D2E/DX2                !
 ! A6    A(9,1,10)             108.9108         estimate D2E/DX2                !
 ! A7    A(1,2,3)              124.6909         estimate D2E/DX2                !
 ! A8    A(1,2,11)             120.292          estimate D2E/DX2                !
 ! A9    A(3,2,11)             115.017          estimate D2E/DX2                !
 ! A10   A(2,3,4)              124.2357         estimate D2E/DX2                !
 ! A11   A(2,3,5)              113.7239         estimate D2E/DX2                !
 ! A12   A(4,3,5)              122.0404         estimate D2E/DX2                !
 ! A13   A(3,5,6)              116.971          estimate D2E/DX2                !
 ! A14   A(5,6,7)              106.8093         estimate D2E/DX2                !
 ! A15   A(5,6,12)             108.6461         estimate D2E/DX2                !
 ! A16   A(5,6,13)             108.6478         estimate D2E/DX2                !
 ! A17   A(7,6,12)             112.2743         estimate D2E/DX2                !
 ! A18   A(7,6,13)             112.2753         estimate D2E/DX2                !
 ! A19   A(12,6,13)            108.078          estimate D2E/DX2                !
 ! A20   A(6,7,14)             110.6516         estimate D2E/DX2                !
 ! A21   A(6,7,15)             110.6512         estimate D2E/DX2                !
 ! A22   A(6,7,16)             109.7963         estimate D2E/DX2                !
 ! A23   A(14,7,15)            108.5203         estimate D2E/DX2                !
 ! A24   A(14,7,16)            108.5815         estimate D2E/DX2                !
 ! A25   A(15,7,16)            108.5814         estimate D2E/DX2                !
 ! D1    D(8,1,2,3)           -121.2405         estimate D2E/DX2                !
 ! D2    D(8,1,2,11)            58.7325         estimate D2E/DX2                !
 ! D3    D(9,1,2,3)            121.1585         estimate D2E/DX2                !
 ! D4    D(9,1,2,11)           -58.8684         estimate D2E/DX2                !
 ! D5    D(10,1,2,3)            -0.0327         estimate D2E/DX2                !
 ! D6    D(10,1,2,11)          179.9404         estimate D2E/DX2                !
 ! D7    D(1,2,3,4)            179.9762         estimate D2E/DX2                !
 ! D8    D(1,2,3,5)             -0.0273         estimate D2E/DX2                !
 ! D9    D(11,2,3,4)             0.0019         estimate D2E/DX2                !
 ! D10   D(11,2,3,5)           179.9984         estimate D2E/DX2                !
 ! D11   D(2,3,5,6)           -179.9965         estimate D2E/DX2                !
 ! D12   D(4,3,5,6)              0.0001         estimate D2E/DX2                !
 ! D13   D(3,5,6,7)           -179.9657         estimate D2E/DX2                !
 ! D14   D(3,5,6,12)            58.7135         estimate D2E/DX2                !
 ! D15   D(3,5,6,13)           -58.6426         estimate D2E/DX2                !
 ! D16   D(5,6,7,14)            60.1616         estimate D2E/DX2                !
 ! D17   D(5,6,7,15)           -60.1575         estimate D2E/DX2                !
 ! D18   D(5,6,7,16)          -179.9978         estimate D2E/DX2                !
 ! D19   D(12,6,7,14)          179.152          estimate D2E/DX2                !
 ! D20   D(12,6,7,15)           58.8329         estimate D2E/DX2                !
 ! D21   D(12,6,7,16)          -61.0074         estimate D2E/DX2                !
 ! D22   D(13,6,7,14)          -58.8316         estimate D2E/DX2                !
 ! D23   D(13,6,7,15)         -179.1507         estimate D2E/DX2                !
 ! D24   D(13,6,7,16)           61.009          estimate D2E/DX2                !
 --------------------------------------------------------------------------------
 Trust Radius=3.00D-01 FncErr=1.00D-07 GrdErr=1.00D-06 EigMax=2.50D+02 EigMin=1.00D-04
 Number of steps in this run=     74 maximum allowed number of steps=    100.
 GradGradGradGradGradGradGradGradGradGradGradGradGradGradGradGradGradGrad

 Leave Link  103 at Tue Jan  7 16:43:08 2025, MaxMem=  4026531840 cpu:               0.2 elap:               0.1
 (Enter /usr/local/intel/g16/l202.exe)
                          Input orientation:                          
 ---------------------------------------------------------------------
 Center     Atomic      Atomic             Coordinates (Angstroms)
 Number     Number       Type             X           Y           Z
 ---------------------------------------------------------------------
      1          6           0       -2.222986   -1.393291   -0.000097
      2          6           0       -1.964313    0.078746    0.000114
      3          6           0       -0.650244    0.683829    0.000006
      4          8           0       -0.443098    1.920187   -0.000246
      5          8           0        0.383423   -0.232346    0.000285
      6          6           0        1.750673    0.305602    0.000276
      7          6           0        2.693064   -0.888248   -0.000264
      8          1           0       -2.815226   -1.679701   -0.879670
      9          1           0       -2.813714   -1.680204    0.880355
     10          1           0       -1.291642   -1.960429   -0.000924
     11          1           0       -2.793339    0.780781   -0.000073
     12          1           0        1.879059    0.935097    0.886419
     13          1           0        1.878828    0.935734   -0.885435
     14          1           0        2.532274   -1.506109   -0.888046
     15          1           0        2.532470   -1.506748    0.887105
     16          1           0        3.731531   -0.540979   -0.000252
 ---------------------------------------------------------------------
                    Distance matrix (angstroms):
                    1          2          3          4          5
     1  C    0.000000
     2  C    1.494592   0.000000
     3  C    2.605368   1.446687   0.000000
     4  O    3.761268   2.388514   1.253591   0.000000
     5  O    2.853272   2.368257   1.381247   2.305761   0.000000
     6  C    4.321597   3.721906   2.430526   2.723879   1.469272
     7  C    4.941924   4.756705   3.694474   4.209848   2.400968
     8  H    1.098375   2.142477   3.323741   4.399951   3.619463
     9  H    1.098396   2.142478   3.323292   4.399783   3.618356
    10  H    1.090435   2.147259   2.720936   3.972305   2.406681
    11  H    2.247641   1.086341   2.145287   2.611873   3.334403
    12  H    4.799383   4.036135   2.691884   2.673760   2.094059
    13  H    4.799277   4.035884   2.691406   2.672835   2.094074
    14  H    4.838768   4.849731   3.963948   4.623909   2.651257
    15  H    4.838839   4.849907   3.964245   4.624422   2.651217
    16  H    6.015206   5.729459   4.549737   4.846119   3.362303
                    6          7          8          9         10
     6  C    0.000000
     7  C    1.520980   0.000000
     8  H    5.056003   5.633916   0.000000
     9  H    5.054858   5.632698   1.760026   0.000000
    10  H    3.793492   4.126434   1.781098   1.780978   0.000000
    11  H    4.568790   5.734656   2.613071   2.613812   3.125592
    12  H    1.094530   2.184811   5.656196   5.372332   4.384609
    13  H    1.094520   2.184815   5.373516   5.655183   4.384290
    14  H    2.163865   1.093509   5.350323   5.633572   3.951674
    15  H    2.163859   1.093506   5.634648   5.349001   3.951994
    16  H    2.154182   1.094993   6.702991   6.701756   5.219876
                   11         12         13         14         15
    11  H    0.000000
    12  H    4.758254   0.000000
    13  H    4.757838   1.771854   0.000000
    14  H    5.863490   3.087864   2.527765   0.000000
    15  H    5.863797   2.527757   3.087858   1.775151   0.000000
    16  H    6.657400   2.529158   2.529177   1.777040   1.777037
                   16
    16  H    0.000000
 Stoichiometry    C5H9O2(2)
 Framework group  C1[X(C5H9O2)]
 Deg. of freedom    42
 Full point group                 C1      NOp   1
 Largest Abelian subgroup         C1      NOp   1
 Largest concise Abelian subgroup C1      NOp   1
                         Standard orientation:                         
 ---------------------------------------------------------------------
 Center     Atomic      Atomic             Coordinates (Angstroms)
 Number     Number       Type             X           Y           Z
 ---------------------------------------------------------------------
      1          6           0       -2.222986   -1.393291   -0.000097
      2          6           0       -1.964313    0.078746    0.000114
      3          6           0       -0.650244    0.683829    0.000006
      4          8           0       -0.443098    1.920187   -0.000246
      5          8           0        0.383423   -0.232346    0.000285
      6          6           0        1.750673    0.305602    0.000276
      7          6           0        2.693064   -0.888248   -0.000264
      8          1           0       -2.815226   -1.679701   -0.879670
      9          1           0       -2.813714   -1.680204    0.880355
     10          1           0       -1.291642   -1.960429   -0.000924
     11          1           0       -2.793339    0.780781   -0.000073
     12          1           0        1.879059    0.935097    0.886419
     13          1           0        1.878828    0.935734   -0.885435
     14          1           0        2.532274   -1.506109   -0.888046
     15          1           0        2.532470   -1.506748    0.887105
     16          1           0        3.731531   -0.540979   -0.000252
 ---------------------------------------------------------------------
 Rotational constants (GHZ):           4.1937862           1.6608881           1.2168213
 Leave Link  202 at Tue Jan  7 16:43:08 2025, MaxMem=  4026531840 cpu:               0.0 elap:               0.2
 (Enter /usr/local/intel/g16/l301.exe)
 Standard basis: def2TZVP (5D, 7F)
 Ernie: Thresh=  0.10000D-02 Tol=  0.10000D-05 Strict=F.
 There are   306 symmetry adapted cartesian basis functions of A   symmetry.
 There are   271 symmetry adapted basis functions of A   symmetry.
   271 basis functions,   429 primitive gaussians,   306 cartesian basis functions
    28 alpha electrons       27 beta electrons
       nuclear repulsion energy       300.2717667472 Hartrees.
 IExCor= 4336 DFT=T Ex+Corr=M062X ExCW=0 ScaHFX=  0.540000
 ScaDFX=  1.000000  1.000000  1.000000  1.000000 ScalE2=  1.000000  1.000000
 IRadAn=      5 IRanWt=     -1 IRanGd=            0 ICorTp=0 IEmpDi=  4
 NAtoms=   16 NActive=   16 NUniq=   16 SFac= 1.00D+00 NAtFMM=   60 NAOKFM=F Big=F
 Integral buffers will be    131072 words long.
 Raffenetti 2 integral format.
 Two-electron integral symmetry is turned on.
 Leave Link  301 at Tue Jan  7 16:43:09 2025, MaxMem=  4026531840 cpu:               0.9 elap:               0.3
 (Enter /usr/local/intel/g16/l302.exe)
 NPDir=0 NMtPBC=     1 NCelOv=     1 NCel=       1 NClECP=     1 NCelD=      1
         NCelK=      1 NCelE2=     1 NClLst=     1 CellRange=     0.0.
 One-electron integrals computed using PRISM.
 One-electron integral symmetry used in STVInt
   1 Symmetry operations used in ECPInt.
 ECPInt:  NShTT=    6441 NPrTT=   19096 LenC2=    6267 LenP2D=   14774.
 LDataN:  DoStor=T MaxTD1= 6 Len=  172
 NBasis=   271 RedAO= T EigKep=  2.38D-04  NBF=   271
 NBsUse=   271 1.00D-06 EigRej= -1.00D+00 NBFU=   271
 Precomputing XC quadrature grid using
 IXCGrd= 4 IRadAn=           5 IRanWt=          -1 IRanGd=           0 AccXCQ= 0.00D+00.
 Generated NRdTot=       0 NPtTot=           0 NUsed=           0 NTot=          32
 NSgBfM=   304   304   304   304   304 MxSgAt=    16 MxSgA2=    16.
 Leave Link  302 at Tue Jan  7 16:43:09 2025, MaxMem=  4026531840 cpu:               4.9 elap:               0.2
 (Enter /usr/local/intel/g16/l303.exe)
 DipDrv:  MaxL=1.
 Leave Link  303 at Tue Jan  7 16:43:10 2025, MaxMem=  4026531840 cpu:               1.1 elap:               0.1
 (Enter /usr/local/intel/g16/l401.exe)
 ExpMin= 9.52D-02 ExpMax= 2.70D+04 ExpMxC= 9.22D+02 IAcc=3 IRadAn=         5 AccDes= 0.00D+00
 Harris functional with IExCor= 1009 and IRadAn=       5 diagonalized for initial guess.
 HarFok:  IExCor= 1009 AccDes= 0.00D+00 IRadAn=         5 IDoV= 1 UseB2=F ITyADJ=14
 ICtDFT=  3500011 ScaDFX=  1.000000  1.000000  1.000000  1.000000
 FoFCou: FMM=F IPFlag=           0 FMFlag=      100000 FMFlg1=           0
         NFxFlg=           0 DoJE=T BraDBF=F KetDBF=T FulRan=T
         wScrn=  0.000000 ICntrl=       500 IOpCl=  0 I1Cent=   200000004 NGrid=           0
         NMat0=    1 NMatS0=      1 NMatT0=    0 NMatD0=    1 NMtDS0=    0 NMtDT0=    0
 Petite list used in FoFCou.
 Harris En= -346.206457993499    
 JPrj=0 DoOrth=F DoCkMO=F.
 Initial guess <Sx>= 0.0000 <Sy>= 0.0000 <Sz>= 0.5000 <S**2>= 0.7500 S= 0.5000
 Leave Link  401 at Tue Jan  7 16:43:10 2025, MaxMem=  4026531840 cpu:              13.5 elap:               0.7
 (Enter /usr/local/intel/g16/l502.exe)
 Integral symmetry usage will be decided dynamically.
 UHF open shell SCF:
 Using DIIS extrapolation, IDIIS=  1040.
 NGot=  4026531840 LenX=  4026335198 LenY=  4026241121
 Requested convergence on RMS density matrix=1.00D-08 within 128 cycles.
 Requested convergence on MAX density matrix=1.00D-06.
 Requested convergence on             energy=1.00D-06.
 No special actions if energy rises.
 Fock matrices will be formed incrementally for  20 cycles.
 Integral accuracy reduced to 1.0D-05 until final iterations.

 Cycle   1  Pass 0  IDiag  1:
 FoFJK:  IHMeth= 1 ICntrl=       0 DoSepK=F KAlg= 0 I1Cent=           0 FoldK=F
 IRaf= 940000000 NMat=       1 IRICut=       1 DoRegI=T DoRafI=F ISym2E= 0 IDoP0=0 IntGTp=1.
 FoFCou: FMM=F IPFlag=           0 FMFlag=      100000 FMFlg1=           0
         NFxFlg=           0 DoJE=F BraDBF=F KetDBF=F FulRan=T
         wScrn=  0.000000 ICntrl=         0 IOpCl=  1 I1Cent=           0 NGrid=           0
         NMat0=    1 NMatS0=      1 NMatT0=    0 NMatD0=    1 NMtDS0=    0 NMtDT0=    0
 Symmetry not used in FoFCou.
 E= -346.109042956717    
 DIIS: error= 3.53D-02 at cycle   1 NSaved=   1.
 NSaved= 1 IEnMin= 1 EnMin= -346.109042956717     IErMin= 1 ErrMin= 3.53D-02
 ErrMax= 3.53D-02  0.00D+00 EMaxC= 1.00D-01 BMatC= 1.18D+00 BMatP= 1.18D+00
 IDIUse=3 WtCom= 6.47D-01 WtEn= 3.53D-01
 Coeff-Com:  0.100D+01
 Coeff-En:   0.100D+01
 Coeff:      0.100D+01
 Gap=     0.350 Goal=   None    Shift=    0.000
 Gap=     0.186 Goal=   None    Shift=    0.000
 GapD=    0.186 DampG=1.000 DampE=0.500 DampFc=0.5000 IDamp=-1.
 Damping current iteration by 5.00D-01
 RMSDP=2.91D-03 MaxDP=1.01D-01              OVMax= 2.56D-01

 Cycle   2  Pass 0  IDiag  1:
 RMSU=  1.44D-03    CP:  9.80D-01
 E= -346.216197538665     Delta-E=       -0.107154581948 Rises=F Damp=T
 DIIS: error= 6.14D-03 at cycle   2 NSaved=   2.
 NSaved= 2 IEnMin= 2 EnMin= -346.216197538665     IErMin= 2 ErrMin= 6.14D-03
 ErrMax= 6.14D-03  0.00D+00 EMaxC= 1.00D-01 BMatC= 1.10D-01 BMatP= 1.18D+00
 IDIUse=3 WtCom= 9.39D-01 WtEn= 6.14D-02
 Coeff-Com: -0.833D-03 0.100D+01
 Coeff-En:   0.000D+00 0.100D+01
 Coeff:     -0.782D-03 0.100D+01
 Gap=     0.438 Goal=   None    Shift=    0.000
 Gap=     0.293 Goal=   None    Shift=    0.000
 RMSDP=8.32D-04 MaxDP=2.48D-02 DE=-1.07D-01 OVMax= 1.22D-01

 Cycle   3  Pass 0  IDiag  1:
 RMSU=  8.03D-04    CP:  9.74D-01  8.53D-01
 E= -346.322420615088     Delta-E=       -0.106223076422 Rises=F Damp=F
 DIIS: error= 9.19D-03 at cycle   3 NSaved=   3.
 NSaved= 3 IEnMin= 3 EnMin= -346.322420615088     IErMin= 2 ErrMin= 6.14D-03
 ErrMax= 9.19D-03  0.00D+00 EMaxC= 1.00D-01 BMatC= 8.64D-02 BMatP= 1.10D-01
 IDIUse=3 WtCom= 9.08D-01 WtEn= 9.19D-02
 Coeff-Com: -0.774D-01 0.503D+00 0.575D+00
 Coeff-En:   0.000D+00 0.000D+00 0.100D+01
 Coeff:     -0.703D-01 0.457D+00 0.614D+00
 Gap=     0.360 Goal=   None    Shift=    0.000
 Gap=     0.281 Goal=   None    Shift=    0.000
 RMSDP=4.38D-04 MaxDP=2.54D-02 DE=-1.06D-01 OVMax= 7.64D-02

 Cycle   4  Pass 0  IDiag  1:
 RMSU=  3.34D-04    CP:  9.76D-01  9.81D-01  7.31D-01
 E= -346.335487328870     Delta-E=       -0.013066713783 Rises=F Damp=F
 DIIS: error= 3.35D-03 at cycle   4 NSaved=   4.
 NSaved= 4 IEnMin= 4 EnMin= -346.335487328870     IErMin= 4 ErrMin= 3.35D-03
 ErrMax= 3.35D-03  0.00D+00 EMaxC= 1.00D-01 BMatC= 1.74D-02 BMatP= 8.64D-02
 IDIUse=3 WtCom= 9.67D-01 WtEn= 3.35D-02
 Coeff-Com: -0.257D-01 0.678D-01 0.334D+00 0.624D+00
 Coeff-En:   0.000D+00 0.000D+00 0.167D+00 0.833D+00
 Coeff:     -0.248D-01 0.655D-01 0.328D+00 0.631D+00
 Gap=     0.358 Goal=   None    Shift=    0.000
 Gap=     0.273 Goal=   None    Shift=    0.000
 RMSDP=1.76D-04 MaxDP=6.34D-03 DE=-1.31D-02 OVMax= 1.58D-02

 Cycle   5  Pass 0  IDiag  1:
 RMSU=  8.56D-05    CP:  9.75D-01  9.32D-01  8.59D-01  7.30D-01
 E= -346.338786651913     Delta-E=       -0.003299323042 Rises=F Damp=F
 DIIS: error= 7.95D-04 at cycle   5 NSaved=   5.
 NSaved= 5 IEnMin= 5 EnMin= -346.338786651913     IErMin= 5 ErrMin= 7.95D-04
 ErrMax= 7.95D-04  0.00D+00 EMaxC= 1.00D-01 BMatC= 5.88D-04 BMatP= 1.74D-02
 IDIUse=3 WtCom= 9.92D-01 WtEn= 7.95D-03
 Coeff-Com: -0.551D-02 0.389D-02 0.109D+00 0.262D+00 0.630D+00
 Coeff-En:   0.000D+00 0.000D+00 0.000D+00 0.000D+00 0.100D+01
 Coeff:     -0.547D-02 0.386D-02 0.108D+00 0.260D+00 0.633D+00
 Gap=     0.355 Goal=   None    Shift=    0.000
 Gap=     0.274 Goal=   None    Shift=    0.000
 RMSDP=3.43D-05 MaxDP=2.30D-03 DE=-3.30D-03 OVMax= 8.28D-03

 Cycle   6  Pass 0  IDiag  1:
 RMSU=  3.15D-05    CP:  9.74D-01  9.34D-01  8.64D-01  7.65D-01  9.43D-01
 E= -346.338945104748     Delta-E=       -0.000158452835 Rises=F Damp=F
 DIIS: error= 3.27D-04 at cycle   6 NSaved=   6.
 NSaved= 6 IEnMin= 6 EnMin= -346.338945104748     IErMin= 6 ErrMin= 3.27D-04
 ErrMax= 3.27D-04  0.00D+00 EMaxC= 1.00D-01 BMatC= 1.22D-04 BMatP= 5.88D-04
 IDIUse=3 WtCom= 9.97D-01 WtEn= 3.27D-03
 Coeff-Com:  0.388D-02-0.137D-01-0.324D-01-0.540D-01 0.238D+00 0.858D+00
 Coeff-En:   0.000D+00 0.000D+00 0.000D+00 0.000D+00 0.000D+00 0.100D+01
 Coeff:      0.386D-02-0.137D-01-0.323D-01-0.539D-01 0.237D+00 0.858D+00
 Gap=     0.357 Goal=   None    Shift=    0.000
 Gap=     0.275 Goal=   None    Shift=    0.000
 RMSDP=2.60D-05 MaxDP=1.49D-03 DE=-1.58D-04 OVMax= 5.39D-03

 Cycle   7  Pass 0  IDiag  1:
 RMSU=  1.54D-05    CP:  9.74D-01  9.31D-01  8.73D-01  7.82D-01  1.13D+00
                    CP:  1.26D+00
 E= -346.339003503518     Delta-E=       -0.000058398771 Rises=F Damp=F
 DIIS: error= 1.64D-04 at cycle   7 NSaved=   7.
 NSaved= 7 IEnMin= 7 EnMin= -346.339003503518     IErMin= 7 ErrMin= 1.64D-04
 ErrMax= 1.64D-04  0.00D+00 EMaxC= 1.00D-01 BMatC= 2.32D-05 BMatP= 1.22D-04
 IDIUse=3 WtCom= 9.98D-01 WtEn= 1.64D-03
 Coeff-Com:  0.280D-02-0.544D-02-0.339D-01-0.868D-01-0.733D-01 0.214D+00
 Coeff-Com:  0.982D+00
 Coeff-En:   0.000D+00 0.000D+00 0.000D+00 0.000D+00 0.000D+00 0.000D+00
 Coeff-En:   0.100D+01
 Coeff:      0.280D-02-0.543D-02-0.339D-01-0.867D-01-0.732D-01 0.214D+00
 Coeff:      0.982D+00
 Gap=     0.357 Goal=   None    Shift=    0.000
 Gap=     0.276 Goal=   None    Shift=    0.000
 RMSDP=1.94D-05 MaxDP=9.82D-04 DE=-5.84D-05 OVMax= 4.25D-03

 Cycle   8  Pass 0  IDiag  1:
 RMSU=  7.98D-06    CP:  9.74D-01  9.26D-01  8.80D-01  7.91D-01  1.26D+00
                    CP:  1.55D+00  1.30D+00
 E= -346.339021839219     Delta-E=       -0.000018335700 Rises=F Damp=F
 DIIS: error= 1.12D-04 at cycle   8 NSaved=   8.
 NSaved= 8 IEnMin= 8 EnMin= -346.339021839219     IErMin= 8 ErrMin= 1.12D-04
 ErrMax= 1.12D-04  0.00D+00 EMaxC= 1.00D-01 BMatC= 4.85D-06 BMatP= 2.32D-05
 IDIUse=3 WtCom= 9.99D-01 WtEn= 1.12D-03
 Coeff-Com:  0.190D-03 0.779D-03-0.167D-02-0.156D-01-0.658D-01-0.927D-01
 Coeff-Com:  0.295D+00 0.880D+00
 Coeff-En:   0.000D+00 0.000D+00 0.000D+00 0.000D+00 0.000D+00 0.000D+00
 Coeff-En:   0.000D+00 0.100D+01
 Coeff:      0.190D-03 0.779D-03-0.167D-02-0.156D-01-0.657D-01-0.926D-01
 Coeff:      0.295D+00 0.880D+00
 Gap=     0.357 Goal=   None    Shift=    0.000
 Gap=     0.276 Goal=   None    Shift=    0.000
 RMSDP=7.18D-06 MaxDP=5.16D-04 DE=-1.83D-05 OVMax= 1.92D-03

 Initial convergence to 1.0D-05 achieved.  Increase integral accuracy.
 Cycle   9  Pass 1  IDiag  1:
 E= -346.339027956867     Delta-E=       -0.000006117648 Rises=F Damp=F
 DIIS: error= 4.78D-05 at cycle   1 NSaved=   1.
 NSaved= 1 IEnMin= 1 EnMin= -346.339027956867     IErMin= 1 ErrMin= 4.78D-05
 ErrMax= 4.78D-05  0.00D+00 EMaxC= 1.00D-01 BMatC= 3.06D-06 BMatP= 3.06D-06
 IDIUse=1 WtCom= 1.00D+00 WtEn= 0.00D+00
 Coeff-Com:  0.100D+01
 Coeff:      0.100D+01
 Gap=     0.357 Goal=   None    Shift=    0.000
 Gap=     0.276 Goal=   None    Shift=    0.000
 RMSDP=7.18D-06 MaxDP=5.16D-04 DE=-6.12D-06 OVMax= 6.60D-04

 Cycle  10  Pass 1  IDiag  1:
 RMSU=  1.31D-05    CP:  1.00D+00
 E= -346.339029119838     Delta-E=       -0.000001162971 Rises=F Damp=F
 DIIS: error= 3.28D-05 at cycle   2 NSaved=   2.
 NSaved= 2 IEnMin= 2 EnMin= -346.339029119838     IErMin= 2 ErrMin= 3.28D-05
 ErrMax= 3.28D-05  0.00D+00 EMaxC= 1.00D-01 BMatC= 4.42D-07 BMatP= 3.06D-06
 IDIUse=1 WtCom= 1.00D+00 WtEn= 0.00D+00
 Coeff-Com:  0.279D-01 0.972D+00
 Coeff:      0.279D-01 0.972D+00
 Gap=     0.357 Goal=   None    Shift=    0.000
 Gap=     0.276 Goal=   None    Shift=    0.000
 RMSDP=2.03D-06 MaxDP=1.72D-04 DE=-1.16D-06 OVMax= 5.33D-04

 Cycle  11  Pass 1  IDiag  1:
 RMSU=  1.89D-06    CP:  1.00D+00  1.06D+00
 E= -346.339029499325     Delta-E=       -0.000000379487 Rises=F Damp=F
 DIIS: error= 2.07D-05 at cycle   3 NSaved=   3.
 NSaved= 3 IEnMin= 3 EnMin= -346.339029499325     IErMin= 3 ErrMin= 2.07D-05
 ErrMax= 2.07D-05  0.00D+00 EMaxC= 1.00D-01 BMatC= 3.65D-07 BMatP= 4.42D-07
 IDIUse=1 WtCom= 1.00D+00 WtEn= 0.00D+00
 Coeff-Com: -0.920D-01 0.478D+00 0.614D+00
 Coeff:     -0.920D-01 0.478D+00 0.614D+00
 Gap=     0.357 Goal=   None    Shift=    0.000
 Gap=     0.276 Goal=   None    Shift=    0.000
 RMSDP=1.23D-06 MaxDP=9.47D-05 DE=-3.79D-07 OVMax= 2.19D-04

 Cycle  12  Pass 1  IDiag  1:
 RMSU=  1.09D-06    CP:  1.00D+00  1.08D+00  1.23D+00
 E= -346.339029681540     Delta-E=       -0.000000182215 Rises=F Damp=F
 DIIS: error= 1.65D-05 at cycle   4 NSaved=   4.
 NSaved= 4 IEnMin= 4 EnMin= -346.339029681540     IErMin= 4 ErrMin= 1.65D-05
 ErrMax= 1.65D-05  0.00D+00 EMaxC= 1.00D-01 BMatC= 8.21D-08 BMatP= 3.65D-07
 IDIUse=1 WtCom= 1.00D+00 WtEn= 0.00D+00
 Coeff-Com: -0.900D-02-0.497D+00-0.583D-01 0.156D+01
 Coeff:     -0.900D-02-0.497D+00-0.583D-01 0.156D+01
 Gap=     0.357 Goal=   None    Shift=    0.000
 Gap=     0.276 Goal=   None    Shift=    0.000
 RMSDP=1.87D-06 MaxDP=1.66D-04 DE=-1.82D-07 OVMax= 5.65D-04

 Cycle  13  Pass 1  IDiag  1:
 RMSU=  5.08D-07    CP:  1.00D+00  1.11D+00  2.02D+00  1.86D+00
 E= -346.339029842792     Delta-E=       -0.000000161253 Rises=F Damp=F
 DIIS: error= 9.06D-06 at cycle   5 NSaved=   5.
 NSaved= 5 IEnMin= 5 EnMin= -346.339029842792     IErMin= 5 ErrMin= 9.06D-06
 ErrMax= 9.06D-06  0.00D+00 EMaxC= 1.00D-01 BMatC= 4.96D-08 BMatP= 8.21D-08
 IDIUse=1 WtCom= 1.00D+00 WtEn= 0.00D+00
 Coeff-Com:  0.157D-01-0.461D+00-0.218D+00 0.103D+01 0.630D+00
 Coeff:      0.157D-01-0.461D+00-0.218D+00 0.103D+01 0.630D+00
 Gap=     0.357 Goal=   None    Shift=    0.000
 Gap=     0.276 Goal=   None    Shift=    0.000
 RMSDP=8.00D-07 MaxDP=6.09D-05 DE=-1.61D-07 OVMax= 1.86D-04

 Cycle  14  Pass 1  IDiag  1:
 RMSU=  2.43D-07    CP:  1.00D+00  1.13D+00  2.33D+00  2.29D+00  9.55D-01
 E= -346.339029868808     Delta-E=       -0.000000026016 Rises=F Damp=F
 DIIS: error= 2.25D-06 at cycle   6 NSaved=   6.
 NSaved= 6 IEnMin= 6 EnMin= -346.339029868808     IErMin= 6 ErrMin= 2.25D-06
 ErrMax= 2.25D-06  0.00D+00 EMaxC= 1.00D-01 BMatC= 3.01D-09 BMatP= 4.96D-08
 IDIUse=1 WtCom= 1.00D+00 WtEn= 0.00D+00
 Coeff-Com:  0.838D-02-0.136D+00-0.880D-01 0.259D+00 0.262D+00 0.694D+00
 Coeff:      0.838D-02-0.136D+00-0.880D-01 0.259D+00 0.262D+00 0.694D+00
 Gap=     0.357 Goal=   None    Shift=    0.000
 Gap=     0.276 Goal=   None    Shift=    0.000
 RMSDP=1.37D-07 MaxDP=1.30D-05 DE=-2.60D-08 OVMax= 4.77D-05

 Cycle  15  Pass 1  IDiag  1:
 RMSU=  7.26D-08    CP:  1.00D+00  1.13D+00  2.38D+00  2.34D+00  1.06D+00
                    CP:  1.02D+00
 E= -346.339029869925     Delta-E=       -0.000000001117 Rises=F Damp=F
 DIIS: error= 6.22D-07 at cycle   7 NSaved=   7.
 NSaved= 7 IEnMin= 7 EnMin= -346.339029869925     IErMin= 7 ErrMin= 6.22D-07
 ErrMax= 6.22D-07  0.00D+00 EMaxC= 1.00D-01 BMatC= 7.85D-10 BMatP= 3.01D-09
 IDIUse=1 WtCom= 1.00D+00 WtEn= 0.00D+00
 Coeff-Com:  0.397D-03 0.397D-01 0.606D-02-0.112D+00-0.196D-01 0.341D+00
 Coeff-Com:  0.744D+00
 Coeff:      0.397D-03 0.397D-01 0.606D-02-0.112D+00-0.196D-01 0.341D+00
 Coeff:      0.744D+00
 Gap=     0.357 Goal=   None    Shift=    0.000
 Gap=     0.276 Goal=   None    Shift=    0.000
 RMSDP=6.99D-08 MaxDP=3.89D-06 DE=-1.12D-09 OVMax= 1.21D-05

 Cycle  16  Pass 1  IDiag  1:
 RMSU=  3.52D-08    CP:  1.00D+00  1.13D+00  2.39D+00  2.38D+00  1.08D+00
                    CP:  1.15D+00  8.90D-01
 E= -346.339029870163     Delta-E=       -0.000000000238 Rises=F Damp=F
 DIIS: error= 1.81D-07 at cycle   8 NSaved=   8.
 NSaved= 8 IEnMin= 8 EnMin= -346.339029870163     IErMin= 8 ErrMin= 1.81D-07
 ErrMax= 1.81D-07  0.00D+00 EMaxC= 1.00D-01 BMatC= 3.31D-11 BMatP= 7.85D-10
 IDIUse=1 WtCom= 1.00D+00 WtEn= 0.00D+00
 Coeff-Com: -0.924D-03 0.273D-01 0.126D-01-0.605D-01-0.378D-01-0.369D-02
 Coeff-Com:  0.174D+00 0.889D+00
 Coeff:     -0.924D-03 0.273D-01 0.126D-01-0.605D-01-0.378D-01-0.369D-02
 Coeff:      0.174D+00 0.889D+00
 Gap=     0.357 Goal=   None    Shift=    0.000
 Gap=     0.276 Goal=   None    Shift=    0.000
 RMSDP=1.74D-08 MaxDP=9.42D-07 DE=-2.38D-10 OVMax= 3.79D-06

 Cycle  17  Pass 1  IDiag  1:
 RMSU=  1.19D-08    CP:  1.00D+00  1.13D+00  2.39D+00  2.38D+00  1.10D+00
                    CP:  1.17D+00  9.68D-01  1.14D+00
 E= -346.339029870180     Delta-E=       -0.000000000017 Rises=F Damp=F
 DIIS: error= 8.59D-08 at cycle   9 NSaved=   9.
 NSaved= 9 IEnMin= 9 EnMin= -346.339029870180     IErMin= 9 ErrMin= 8.59D-08
 ErrMax= 8.59D-08  0.00D+00 EMaxC= 1.00D-01 BMatC= 3.00D-12 BMatP= 3.31D-11
 IDIUse=1 WtCom= 1.00D+00 WtEn= 0.00D+00
 Coeff-Com: -0.140D-03 0.316D-03 0.928D-03 0.143D-02-0.403D-02-0.240D-01
 Coeff-Com: -0.456D-01 0.117D+00 0.954D+00
 Coeff:     -0.140D-03 0.316D-03 0.928D-03 0.143D-02-0.403D-02-0.240D-01
 Coeff:     -0.456D-01 0.117D+00 0.954D+00
 Gap=     0.357 Goal=   None    Shift=    0.000
 Gap=     0.276 Goal=   None    Shift=    0.000
 RMSDP=5.59D-09 MaxDP=1.77D-07 DE=-1.71D-11 OVMax= 5.85D-07

 SCF Done:  E(UM062X) =  -346.339029870     A.U. after   17 cycles
            NFock= 17  Conv=0.56D-08     -V/T= 2.0058
 <Sx>= 0.0000 <Sy>= 0.0000 <Sz>= 0.5000 <S**2>= 0.7619 S= 0.5060
 <L.S>=  0.00000000000    
 KE= 3.443437035178D+02 PE=-1.409446588894D+03 EE= 4.184920887584D+02
 Annihilation of the first spin contaminant:
 S**2 before annihilation     0.7619,   after     0.7501
 Leave Link  502 at Tue Jan  7 16:44:00 2025, MaxMem=  4026531840 cpu:             994.5 elap:              49.8
 (Enter /usr/local/intel/g16/l601.exe)
 Copying SCF densities to generalized density rwf, IOpCl= 1 IROHF=0.

 **********************************************************************

            Population analysis using the SCF Density.

 **********************************************************************

 Orbital symmetries:
 Alpha Orbitals:
       Occupied  (A) (A) (A) (A) (A) (A) (A) (A) (A) (A) (A) (A)
                 (A) (A) (A) (A) (A) (A) (A) (A) (A) (A) (A) (A)
                 (A) (A) (A) (A)
       Virtual   (A) (A) (A) (A) (A) (A) (A) (A) (A) (A) (A) (A)
                 (A) (A) (A) (A) (A) (A) (A) (A) (A) (A) (A) (A)
                 (A) (A) (A) (A) (A) (A) (A) (A) (A) (A) (A) (A)
                 (A) (A) (A) (A) (A) (A) (A) (A) (A) (A) (A) (A)
                 (A) (A) (A) (A) (A) (A) (A) (A) (A) (A) (A) (A)
                 (A) (A) (A) (A) (A) (A) (A) (A) (A) (A) (A) (A)
                 (A) (A) (A) (A) (A) (A) (A) (A) (A) (A) (A) (A)
                 (A) (A) (A) (A) (A) (A) (A) (A) (A) (A) (A) (A)
                 (A) (A) (A) (A) (A) (A) (A) (A) (A) (A) (A) (A)
                 (A) (A) (A) (A) (A) (A) (A) (A) (A) (A) (A) (A)
                 (A) (A) (A) (A) (A) (A) (A) (A) (A) (A) (A) (A)
                 (A) (A) (A) (A) (A) (A) (A) (A) (A) (A) (A) (A)
                 (A) (A) (A) (A) (A) (A) (A) (A) (A) (A) (A) (A)
                 (A) (A) (A) (A) (A) (A) (A) (A) (A) (A) (A) (A)
                 (A) (A) (A) (A) (A) (A) (A) (A) (A) (A) (A) (A)
                 (A) (A) (A) (A) (A) (A) (A) (A) (A) (A) (A) (A)
                 (A) (A) (A) (A) (A) (A) (A) (A) (A) (A) (A) (A)
                 (A) (A) (A) (A) (A) (A) (A) (A) (A) (A) (A) (A)
                 (A) (A) (A) (A) (A) (A) (A) (A) (A) (A) (A) (A)
                 (A) (A) (A) (A) (A) (A) (A) (A) (A) (A) (A) (A)
                 (A) (A) (A)
 Beta  Orbitals:
       Occupied  (A) (A) (A) (A) (A) (A) (A) (A) (A) (A) (A) (A)
                 (A) (A) (A) (A) (A) (A) (A) (A) (A) (A) (A) (A)
                 (A) (A) (A)
       Virtual   (A) (A) (A) (A) (A) (A) (A) (A) (A) (A) (A) (A)
                 (A) (A) (A) (A) (A) (A) (A) (A) (A) (A) (A) (A)
                 (A) (A) (A) (A) (A) (A) (A) (A) (A) (A) (A) (A)
                 (A) (A) (A) (A) (A) (A) (A) (A) (A) (A) (A) (A)
                 (A) (A) (A) (A) (A) (A) (A) (A) (A) (A) (A) (A)
                 (A) (A) (A) (A) (A) (A) (A) (A) (A) (A) (A) (A)
                 (A) (A) (A) (A) (A) (A) (A) (A) (A) (A) (A) (A)
                 (A) (A) (A) (A) (A) (A) (A) (A) (A) (A) (A) (A)
                 (A) (A) (A) (A) (A) (A) (A) (A) (A) (A) (A) (A)
                 (A) (A) (A) (A) (A) (A) (A) (A) (A) (A) (A) (A)
                 (A) (A) (A) (A) (A) (A) (A) (A) (A) (A) (A) (A)
                 (A) (A) (A) (A) (A) (A) (A) (A) (A) (A) (A) (A)
                 (A) (A) (A) (A) (A) (A) (A) (A) (A) (A) (A) (A)
                 (A) (A) (A) (A) (A) (A) (A) (A) (A) (A) (A) (A)
                 (A) (A) (A) (A) (A) (A) (A) (A) (A) (A) (A) (A)
                 (A) (A) (A) (A) (A) (A) (A) (A) (A) (A) (A) (A)
                 (A) (A) (A) (A) (A) (A) (A) (A) (A) (A) (A) (A)
                 (A) (A) (A) (A) (A) (A) (A) (A) (A) (A) (A) (A)
                 (A) (A) (A) (A) (A) (A) (A) (A) (A) (A) (A) (A)
                 (A) (A) (A) (A) (A) (A) (A) (A) (A) (A) (A) (A)
                 (A) (A) (A) (A)
 The electronic state is 2-A.
 Alpha  occ. eigenvalues --  -19.66286 -19.61074 -10.66870 -10.59587 -10.58383
 Alpha  occ. eigenvalues --  -10.54930 -10.53592  -1.20489  -1.11654  -0.90497
 Alpha  occ. eigenvalues --   -0.85969  -0.76920  -0.71311  -0.64452  -0.57035
 Alpha  occ. eigenvalues --   -0.56693  -0.55506  -0.51311  -0.49756  -0.48303
 Alpha  occ. eigenvalues --   -0.46803  -0.46343  -0.44663  -0.43021  -0.41772
 Alpha  occ. eigenvalues --   -0.37585  -0.35353  -0.29032
 Alpha virt. eigenvalues --    0.06714   0.07786   0.08187   0.10858   0.12100
 Alpha virt. eigenvalues --    0.13267   0.13463   0.14226   0.14244   0.15630
 Alpha virt. eigenvalues --    0.16464   0.17805   0.19661   0.20911   0.23367
 Alpha virt. eigenvalues --    0.24195   0.25623   0.26320   0.27031   0.28685
 Alpha virt. eigenvalues --    0.28697   0.31831   0.32326   0.34056   0.34538
 Alpha virt. eigenvalues --    0.38040   0.38147   0.40319   0.42722   0.43413
 Alpha virt. eigenvalues --    0.43813   0.45236   0.46676   0.47173   0.47996
 Alpha virt. eigenvalues --    0.48631   0.49451   0.50957   0.52892   0.53722
 Alpha virt. eigenvalues --    0.53747   0.55207   0.58273   0.60018   0.60684
 Alpha virt. eigenvalues --    0.62302   0.64570   0.65453   0.68138   0.69328
 Alpha virt. eigenvalues --    0.70076   0.70095   0.75726   0.80312   0.84464
 Alpha virt. eigenvalues --    0.84889   0.88372   0.89525   0.90717   0.91423
 Alpha virt. eigenvalues --    0.93112   0.95163   0.99691   1.00316   1.03032
 Alpha virt. eigenvalues --    1.06327   1.08050   1.09179   1.09347   1.13781
 Alpha virt. eigenvalues --    1.13818   1.16679   1.21953   1.22557   1.23399
 Alpha virt. eigenvalues --    1.30153   1.36411   1.42130   1.44287   1.50626
 Alpha virt. eigenvalues --    1.51396   1.53298   1.55710   1.55988   1.56808
 Alpha virt. eigenvalues --    1.57487   1.58470   1.58717   1.60008   1.61047
 Alpha virt. eigenvalues --    1.61093   1.64017   1.65768   1.67013   1.72828
 Alpha virt. eigenvalues --    1.73964   1.76013   1.80586   1.81546   1.83513
 Alpha virt. eigenvalues --    1.84555   1.85117   1.91813   1.95245   1.97750
 Alpha virt. eigenvalues --    1.98121   2.02206   2.02824   2.03224   2.07929
 Alpha virt. eigenvalues --    2.11335   2.12973   2.16746   2.16929   2.20138
 Alpha virt. eigenvalues --    2.27104   2.27237   2.27933   2.30962   2.32595
 Alpha virt. eigenvalues --    2.34471   2.34631   2.36233   2.38434   2.39162
 Alpha virt. eigenvalues --    2.41156   2.41629   2.48398   2.49623   2.53337
 Alpha virt. eigenvalues --    2.54189   2.56186   2.56269   2.56813   2.57355
 Alpha virt. eigenvalues --    2.62405   2.63155   2.63789   2.68816   2.69674
 Alpha virt. eigenvalues --    2.74578   2.75191   2.77839   2.78545   2.81934
 Alpha virt. eigenvalues --    2.82115   2.84134   2.88411   2.93640   2.95977
 Alpha virt. eigenvalues --    2.98914   3.02964   3.03029   3.04037   3.04315
 Alpha virt. eigenvalues --    3.07308   3.07725   3.08668   3.11513   3.14339
 Alpha virt. eigenvalues --    3.15598   3.16200   3.17633   3.19982   3.23933
 Alpha virt. eigenvalues --    3.24504   3.26685   3.27991   3.29783   3.32521
 Alpha virt. eigenvalues --    3.32666   3.35527   3.36740   3.37866   3.41919
 Alpha virt. eigenvalues --    3.43003   3.44195   3.47791   3.51782   3.52291
 Alpha virt. eigenvalues --    3.54673   3.60034   3.61084   3.64656   3.71774
 Alpha virt. eigenvalues --    3.72911   3.77532   3.79022   3.85505   3.86723
 Alpha virt. eigenvalues --    3.92799   3.94473   3.95770   3.97308   4.08062
 Alpha virt. eigenvalues --    4.11751   4.21857   4.27345   4.29498   4.29877
 Alpha virt. eigenvalues --    4.37251   4.37707   4.39864   4.47950   4.48889
 Alpha virt. eigenvalues --    4.50452   4.58751   4.65387   4.69292   4.72313
 Alpha virt. eigenvalues --    4.79658   4.89957   5.19423   5.24652   5.29853
 Alpha virt. eigenvalues --    5.43009   5.46655   5.57712   5.62541   5.77936
 Alpha virt. eigenvalues --    5.88823   6.00927   6.05845   6.13092   6.26211
 Alpha virt. eigenvalues --    6.34133   6.48667   6.63071   6.64890   6.75246
 Alpha virt. eigenvalues --    6.80110   6.85142   7.01140   7.05864   7.24048
 Alpha virt. eigenvalues --    7.36189  22.37600  22.38933  22.42367  22.49379
 Alpha virt. eigenvalues --   23.21135  44.01447  44.30487
  Beta  occ. eigenvalues --  -19.66238 -19.60673 -10.66961 -10.59588 -10.57833
  Beta  occ. eigenvalues --  -10.54979 -10.53592  -1.20155  -1.10758  -0.88847
  Beta  occ. eigenvalues --   -0.85471  -0.76085  -0.70600  -0.64007  -0.56389
  Beta  occ. eigenvalues --   -0.56208  -0.54709  -0.49304  -0.49047  -0.47359
  Beta  occ. eigenvalues --   -0.46425  -0.46260  -0.44364  -0.42016  -0.41640
  Beta  occ. eigenvalues --   -0.35694  -0.34547
  Beta virt. eigenvalues --   -0.06925   0.06450   0.07925   0.10762   0.10930
  Beta virt. eigenvalues --    0.12321   0.13024   0.13463   0.13688   0.14220
  Beta virt. eigenvalues --    0.15455   0.16546   0.17466   0.19466   0.20926
  Beta virt. eigenvalues --    0.22754   0.24111   0.25632   0.26195   0.27109
  Beta virt. eigenvalues --    0.27913   0.28351   0.31635   0.32202   0.33283
  Beta virt. eigenvalues --    0.34049   0.37635   0.38588   0.40337   0.42602
  Beta virt. eigenvalues --    0.43785   0.44102   0.45427   0.46730   0.47097
  Beta virt. eigenvalues --    0.47923   0.48889   0.49187   0.50866   0.52537
  Beta virt. eigenvalues --    0.53755   0.53819   0.55916   0.58445   0.60662
  Beta virt. eigenvalues --    0.60693   0.62447   0.65232   0.65937   0.68146
  Beta virt. eigenvalues --    0.69433   0.69886   0.70593   0.75313   0.80952
  Beta virt. eigenvalues --    0.84556   0.84628   0.88414   0.89587   0.90674
  Beta virt. eigenvalues --    0.91495   0.92653   0.94846   1.00025   1.00454
  Beta virt. eigenvalues --    1.03237   1.06607   1.08065   1.09389   1.09480
  Beta virt. eigenvalues --    1.14042   1.14545   1.17274   1.22504   1.23003
  Beta virt. eigenvalues --    1.23517   1.30979   1.36949   1.42410   1.45842
  Beta virt. eigenvalues --    1.51744   1.52374   1.53313   1.55935   1.56596
  Beta virt. eigenvalues --    1.56840   1.57701   1.58502   1.58852   1.60519
  Beta virt. eigenvalues --    1.61134   1.61828   1.64125   1.65760   1.67662
  Beta virt. eigenvalues --    1.72898   1.74705   1.76278   1.81074   1.81922
  Beta virt. eigenvalues --    1.84381   1.84785   1.85355   1.93013   1.95540
  Beta virt. eigenvalues --    1.98264   1.98904   2.02422   2.03222   2.03615
  Beta virt. eigenvalues --    2.08008   2.11367   2.13335   2.17168   2.17707
  Beta virt. eigenvalues --    2.20514   2.28085   2.28543   2.28596   2.31302
  Beta virt. eigenvalues --    2.32816   2.34689   2.34968   2.36464   2.39296
  Beta virt. eigenvalues --    2.39652   2.41616   2.41839   2.48873   2.51268
  Beta virt. eigenvalues --    2.54005   2.54737   2.56226   2.56695   2.57047
  Beta virt. eigenvalues --    2.57708   2.62501   2.63791   2.66323   2.69652
  Beta virt. eigenvalues --    2.70143   2.75068   2.75892   2.79703   2.80027
  Beta virt. eigenvalues --    2.82593   2.84094   2.85624   2.88552   2.96204
  Beta virt. eigenvalues --    2.96985   2.99564   3.03612   3.03792   3.04466
  Beta virt. eigenvalues --    3.05246   3.08134   3.08487   3.10148   3.11920
  Beta virt. eigenvalues --    3.14988   3.16193   3.19339   3.19623   3.21812
  Beta virt. eigenvalues --    3.24754   3.25404   3.27686   3.28602   3.30801
  Beta virt. eigenvalues --    3.32920   3.33485   3.35866   3.37199   3.39552
  Beta virt. eigenvalues --    3.42116   3.43914   3.44531   3.47895   3.52300
  Beta virt. eigenvalues --    3.54545   3.55994   3.61122   3.62666   3.64977
  Beta virt. eigenvalues --    3.72124   3.73732   3.78729   3.79833   3.86729
  Beta virt. eigenvalues --    3.87419   3.96140   3.96688   3.96725   3.97520
  Beta virt. eigenvalues --    4.12742   4.13253   4.22377   4.28074   4.29917
  Beta virt. eigenvalues --    4.30656   4.37314   4.39215   4.40902   4.48216
  Beta virt. eigenvalues --    4.49554   4.53052   4.61627   4.67411   4.72694
  Beta virt. eigenvalues --    4.75779   4.82796   4.92759   5.20227   5.25628
  Beta virt. eigenvalues --    5.30203   5.43461   5.47283   5.58551   5.62781
  Beta virt. eigenvalues --    5.78362   5.89231   6.01114   6.06903   6.13687
  Beta virt. eigenvalues --    6.26608   6.36969   6.51201   6.63484   6.65433
  Beta virt. eigenvalues --    6.76550   6.80634   6.86124   7.01993   7.06424
  Beta virt. eigenvalues --    7.24127   7.36389  22.38039  22.39034  22.42782
  Beta virt. eigenvalues --   22.49733  23.21260  44.01400  44.30486
          Condensed to atoms (all electrons):
               1          2          3          4          5          6
     1  C    5.041026   0.208598  -0.053446   0.007526   0.008547   0.001023
     2  C    0.208598   5.395559   0.447394  -0.075366  -0.096519   0.006074
     3  C   -0.053446   0.447394   4.375641   0.586239   0.330749  -0.042367
     4  O    0.007526  -0.075366   0.586239   7.939185  -0.082368   0.001675
     5  O    0.008547  -0.096519   0.330749  -0.082368   8.031997   0.200669
     6  C    0.001023   0.006074  -0.042367   0.001675   0.200669   4.919955
     7  C   -0.000778   0.001144   0.004208   0.004883  -0.041640   0.269976
     8  H    0.402905  -0.041624   0.001144  -0.000076  -0.000318  -0.000058
     9  H    0.402879  -0.041627   0.001134  -0.000076  -0.000321  -0.000059
    10  H    0.416270  -0.043634   0.001269   0.000299   0.009889  -0.000295
    11  H   -0.029196   0.406516  -0.032696   0.003836   0.003919  -0.000287
    12  H   -0.000180   0.000336  -0.005244   0.004813  -0.035710   0.423478
    13  H   -0.000179   0.000337  -0.005255   0.004831  -0.035712   0.423492
    14  H    0.000060  -0.000223  -0.000285  -0.000084   0.001570  -0.034954
    15  H    0.000060  -0.000223  -0.000286  -0.000084   0.001566  -0.034949
    16  H   -0.000009   0.000029   0.000103   0.000094   0.004557  -0.041658
               7          8          9         10         11         12
     1  C   -0.000778   0.402905   0.402879   0.416270  -0.029196  -0.000180
     2  C    0.001144  -0.041624  -0.041627  -0.043634   0.406516   0.000336
     3  C    0.004208   0.001144   0.001134   0.001269  -0.032696  -0.005244
     4  O    0.004883  -0.000076  -0.000076   0.000299   0.003836   0.004813
     5  O   -0.041640  -0.000318  -0.000321   0.009889   0.003919  -0.035710
     6  C    0.269976  -0.000058  -0.000059  -0.000295  -0.000287   0.423478
     7  C    5.024456   0.000015   0.000015  -0.000054   0.000018  -0.039320
     8  H    0.000015   0.541059  -0.034619  -0.020761  -0.002708  -0.000005
     9  H    0.000015  -0.034619   0.541068  -0.020773  -0.002692   0.000026
    10  H   -0.000054  -0.020761  -0.020773   0.485917   0.003303   0.000067
    11  H    0.000018  -0.002708  -0.002692   0.003303   0.469938  -0.000014
    12  H   -0.039320  -0.000005   0.000026   0.000067  -0.000014   0.554500
    13  H   -0.039325   0.000026  -0.000005   0.000067  -0.000014  -0.044633
    14  H    0.406495  -0.000000   0.000000   0.000023   0.000001   0.007761
    15  H    0.406493   0.000000  -0.000000   0.000023   0.000001  -0.008372
    16  H    0.409717   0.000000   0.000000   0.000018  -0.000001  -0.001692
              13         14         15         16
     1  C   -0.000179   0.000060   0.000060  -0.000009
     2  C    0.000337  -0.000223  -0.000223   0.000029
     3  C   -0.005255  -0.000285  -0.000286   0.000103
     4  O    0.004831  -0.000084  -0.000084   0.000094
     5  O   -0.035712   0.001570   0.001566   0.004557
     6  C    0.423492  -0.034954  -0.034949  -0.041658
     7  C   -0.039325   0.406495   0.406493   0.409717
     8  H    0.000026  -0.000000   0.000000   0.000000
     9  H   -0.000005   0.000000  -0.000000   0.000000
    10  H    0.000067   0.000023   0.000023   0.000018
    11  H   -0.000014   0.000001   0.000001  -0.000001
    12  H   -0.044633   0.007761  -0.008372  -0.001692
    13  H    0.554455  -0.008369   0.007760  -0.001693
    14  H   -0.008369   0.537104  -0.029986  -0.022857
    15  H    0.007760  -0.029986   0.537108  -0.022861
    16  H   -0.001693  -0.022857  -0.022861   0.536269
          Atomic-Atomic Spin Densities.
               1          2          3          4          5          6
     1  C   -0.059811  -0.047811   0.006667   0.000110   0.000572  -0.000152
     2  C   -0.047811   0.960148   0.048908  -0.022735  -0.015536   0.000679
     3  C    0.006667   0.048908  -0.120607  -0.026059   0.009125   0.002670
     4  O    0.000110  -0.022735  -0.026059   0.253656   0.005488  -0.001632
     5  O    0.000572  -0.015536   0.009125   0.005488   0.022231  -0.002018
     6  C   -0.000152   0.000679   0.002670  -0.001632  -0.002018  -0.006258
     7  C    0.000058   0.000019  -0.000319  -0.000323  -0.000173   0.002624
     8  H    0.018841  -0.026243   0.000496   0.000073   0.000265   0.000002
     9  H    0.018909  -0.026324   0.000506   0.000073   0.000266   0.000002
    10  H   -0.000755   0.001443  -0.000630  -0.000016   0.000113   0.000086
    11  H    0.002836  -0.012907   0.006979   0.000314   0.000039   0.000009
    12  H    0.000014   0.000168  -0.000463  -0.000595   0.000079   0.000960
    13  H    0.000014   0.000166  -0.000462  -0.000594   0.000080   0.000962
    14  H    0.000006  -0.000053   0.000019   0.000015   0.000149  -0.000220
    15  H    0.000006  -0.000053   0.000019   0.000015   0.000149  -0.000222
    16  H    0.000000   0.000002  -0.000001  -0.000001  -0.000007   0.000263
               7          8          9         10         11         12
     1  C    0.000058   0.018841   0.018909  -0.000755   0.002836   0.000014
     2  C    0.000019  -0.026243  -0.026324   0.001443  -0.012907   0.000168
     3  C   -0.000319   0.000496   0.000506  -0.000630   0.006979  -0.000463
     4  O   -0.000323   0.000073   0.000073  -0.000016   0.000314  -0.000595
     5  O   -0.000173   0.000265   0.000266   0.000113   0.000039   0.000079
     6  C    0.002624   0.000002   0.000002   0.000086   0.000009   0.000960
     7  C   -0.001969  -0.000003  -0.000003  -0.000021  -0.000002   0.000001
     8  H   -0.000003   0.060011  -0.016066  -0.000381   0.000031   0.000007
     9  H   -0.000003  -0.016066   0.060132  -0.000423   0.000028  -0.000012
    10  H   -0.000021  -0.000381  -0.000423   0.002153  -0.000089  -0.000003
    11  H   -0.000002   0.000031   0.000028  -0.000089  -0.027139  -0.000000
    12  H    0.000001   0.000007  -0.000012  -0.000003  -0.000000   0.000410
    13  H    0.000007  -0.000012   0.000007  -0.000003  -0.000000   0.000495
    14  H    0.000009   0.000011  -0.000006   0.000000   0.000000   0.000049
    15  H    0.000014  -0.000006   0.000011   0.000000   0.000000  -0.000108
    16  H   -0.000233  -0.000000  -0.000000  -0.000000  -0.000000  -0.000007
              13         14         15         16
     1  C    0.000014   0.000006   0.000006   0.000000
     2  C    0.000166  -0.000053  -0.000053   0.000002
     3  C   -0.000462   0.000019   0.000019  -0.000001
     4  O   -0.000594   0.000015   0.000015  -0.000001
     5  O    0.000080   0.000149   0.000149  -0.000007
     6  C    0.000962  -0.000220  -0.000222   0.000263
     7  C    0.000007   0.000009   0.000014  -0.000233
     8  H   -0.000012   0.000011  -0.000006  -0.000000
     9  H    0.000007  -0.000006   0.000011  -0.000000
    10  H   -0.000003   0.000000   0.000000  -0.000000
    11  H   -0.000000   0.000000   0.000000  -0.000000
    12  H    0.000495   0.000049  -0.000108  -0.000007
    13  H    0.000397  -0.000107   0.000049  -0.000007
    14  H   -0.000107   0.000467  -0.000292   0.000028
    15  H    0.000049  -0.000292   0.000467   0.000027
    16  H   -0.000007   0.000028   0.000027  -0.000184
 Mulliken charges and spin densities:
               1          2
     1  C   -0.405106  -0.060493
     2  C   -0.166770   0.859870
     3  C    0.391697  -0.073151
     4  O   -0.395327   0.207791
     5  O   -0.300874   0.020821
     6  C   -0.091714  -0.002244
     7  C   -0.406302  -0.000313
     8  H    0.155020   0.037027
     9  H    0.155048   0.037099
    10  H    0.168371   0.001476
    11  H    0.180077  -0.029899
    12  H    0.144189   0.000995
    13  H    0.144219   0.000990
    14  H    0.143743   0.000075
    15  H    0.143748   0.000075
    16  H    0.139984  -0.000118
 Sum of Mulliken charges =  -0.00000   1.00000
 Mulliken charges and spin densities with hydrogens summed into heavy atoms:
               1          2
     1  C    0.073332   0.015109
     2  C    0.013307   0.829971
     3  C    0.391697  -0.073151
     4  O   -0.395327   0.207791
     5  O   -0.300874   0.020821
     6  C    0.196693  -0.000260
     7  C    0.021173  -0.000282
 Electronic spatial extent (au):  <R**2>=            987.1563
 Charge=             -0.0000 electrons
 Dipole moment (field-independent basis, Debye):
    X=             -0.1099    Y=             -2.6629    Z=              0.0002  Tot=              2.6652
 Quadrupole moment (field-independent basis, Debye-Ang):
   XX=            -33.7664   YY=            -49.5421   ZZ=            -42.6861
   XY=              2.6512   XZ=              0.0004   YZ=              0.0011
 Traceless Quadrupole moment (field-independent basis, Debye-Ang):
   XX=              8.2318   YY=             -7.5439   ZZ=             -0.6879
   XY=              2.6512   XZ=              0.0004   YZ=              0.0011
 Octapole moment (field-independent basis, Debye-Ang**2):
  XXX=             -4.0575  YYY=            -12.8909  ZZZ=              0.0019  XYY=              1.8422
  XXY=              0.7872  XXZ=             -0.0017  XZZ=              0.9552  YZZ=              1.0741
  YYZ=              0.0027  XYZ=              0.0003
 Hexadecapole moment (field-independent basis, Debye-Ang**3):
 XXXX=           -857.0546 YYYY=           -383.2598 ZZZZ=            -63.1758 XXXY=              4.6270
 XXXZ=              0.0194 YYYX=              7.7447 YYYZ=             -0.0010 ZZZX=             -0.0010
 ZZZY=             -0.0025 XXYY=           -206.7092 XXZZ=           -161.4277 YYZZ=            -65.9719
 XXYZ=             -0.0005 YYXZ=             -0.0023 ZZXY=              2.3975
 N-N= 3.002717667472D+02 E-N=-1.409446575175D+03  KE= 3.443437035178D+02
                          Isotropic Fermi Contact Couplings
        Atom                 a.u.       MegaHertz       Gauss      10(-4) cm-1
     1  C(13)             -0.02766     -31.09470     -11.09536     -10.37208
     2  C(13)              0.13585     152.72345      54.49552      50.94306
     3  C(13)             -0.05092     -57.24673     -20.42706     -19.09545
     4  O(17)              0.03806     -23.06933      -8.23171      -7.69510
     5  O(17)             -0.00267       1.62155       0.57861       0.54089
     6  C(13)             -0.00121      -1.35677      -0.48413      -0.45257
     7  C(13)             -0.00004      -0.04498      -0.01605      -0.01500
     8  H(1)               0.01969      88.01729      31.40676      29.35941
     9  H(1)               0.01973      88.21204      31.47625      29.42437
    10  H(1)               0.00020       0.91479       0.32642       0.30514
    11  H(1)              -0.01419     -63.42485     -22.63156     -21.15625
    12  H(1)               0.00092       4.12063       1.47034       1.37449
    13  H(1)               0.00092       4.11502       1.46834       1.37262
    14  H(1)              -0.00001      -0.03977      -0.01419      -0.01327
    15  H(1)              -0.00001      -0.03953      -0.01411      -0.01319
    16  H(1)              -0.00007      -0.31830      -0.11358      -0.10617
 --------------------------------------------------------
       Center         ----  Spin Dipole Couplings  ----
                      3XX-RR        3YY-RR        3ZZ-RR
 --------------------------------------------------------
     1   Atom       -0.014465     -0.004266      0.018731
     2   Atom       -0.466173     -0.471829      0.938002
     3   Atom        0.029989      0.025558     -0.055547
     4   Atom       -0.419056     -0.430483      0.849539
     5   Atom       -0.040895     -0.055776      0.096671
     6   Atom        0.002807     -0.002615     -0.000192
     7   Atom        0.002327     -0.000803     -0.001524
     8   Atom       -0.003107      0.008112     -0.005005
     9   Atom       -0.003131      0.008125     -0.004993
    10   Atom       -0.006530      0.013111     -0.006581
    11   Atom        0.018639     -0.010966     -0.007673
    12   Atom        0.004204     -0.001890     -0.002314
    13   Atom        0.004207     -0.001890     -0.002317
    14   Atom        0.001727     -0.000540     -0.001187
    15   Atom        0.001727     -0.000540     -0.001188
    16   Atom        0.001540     -0.000681     -0.000859
 --------------------------------------------------------
                        XY            XZ            YZ
 --------------------------------------------------------
     1   Atom        0.003019     -0.000003      0.000003
     2   Atom       -0.001537     -0.000061     -0.000030
     3   Atom        0.013948      0.000026     -0.000005
     4   Atom       -0.007663      0.000164      0.000315
     5   Atom        0.000939     -0.000036     -0.000028
     6   Atom       -0.001661     -0.000001     -0.000001
     7   Atom       -0.001154     -0.000000      0.000000
     8   Atom        0.008443      0.005266      0.006962
     9   Atom        0.008437     -0.005267     -0.006970
    10   Atom       -0.005457      0.000000      0.000009
    11   Atom       -0.060239      0.000007     -0.000010
    12   Atom       -0.000180      0.002008      0.000096
    13   Atom       -0.000181     -0.002007     -0.000096
    14   Atom       -0.001363     -0.000641      0.000295
    15   Atom       -0.001364      0.000640     -0.000295
    16   Atom       -0.000536     -0.000000      0.000000
 --------------------------------------------------------


 ---------------------------------------------------------------------------------
              Anisotropic Spin Dipole Couplings in Principal Axis System
 ---------------------------------------------------------------------------------

       Atom             a.u.   MegaHertz   Gauss  10(-4) cm-1        Axes

              Baa    -0.0153    -2.052    -0.732    -0.684  0.9645 -0.2641  0.0001
     1 C(13)  Bbb    -0.0034    -0.462    -0.165    -0.154  0.2641  0.9645 -0.0001
              Bcc     0.0187     2.514     0.897     0.838 -0.0001  0.0001  1.0000
 
              Baa    -0.4722   -63.367   -22.611   -21.137  0.2464  0.9692  0.0000
     2 C(13)  Bbb    -0.4658   -62.504   -22.303   -20.849  0.9692 -0.2464  0.0000
              Bcc     0.9380   125.871    44.914    41.986 -0.0000 -0.0000  1.0000
 
              Baa    -0.0555    -7.454    -2.660    -2.486 -0.0003  0.0001  1.0000
     3 C(13)  Bbb     0.0137     1.832     0.654     0.611 -0.6493  0.7605 -0.0003
              Bcc     0.0419     5.622     2.006     1.875  0.7605  0.6493  0.0002
 
              Baa    -0.4343    31.428    11.214    10.483  0.4485  0.8938 -0.0003
     4 O(17)  Bbb    -0.4152    30.044    10.721    10.022  0.8938 -0.4485 -0.0000
              Bcc     0.8495   -61.472   -21.935   -20.505  0.0001  0.0002  1.0000
 
              Baa    -0.0558     4.040     1.442     1.348 -0.0627  0.9980  0.0002
     5 O(17)  Bbb    -0.0408     2.955     1.054     0.986  0.9980  0.0627  0.0003
              Bcc     0.0967    -6.995    -2.496    -2.333 -0.0003 -0.0002  1.0000
 
              Baa    -0.0031    -0.414    -0.148    -0.138  0.2714  0.9625  0.0005
     6 C(13)  Bbb    -0.0002    -0.026    -0.009    -0.009  0.0001 -0.0005  1.0000
              Bcc     0.0033     0.439     0.157     0.147  0.9625 -0.2714 -0.0002
 
              Baa    -0.0015    -0.204    -0.073    -0.068  0.0001  0.0001  1.0000
     7 C(13)  Bbb    -0.0012    -0.159    -0.057    -0.053  0.3124  0.9499 -0.0001
              Bcc     0.0027     0.363     0.130     0.121  0.9499 -0.3124 -0.0001
 
              Baa    -0.0094    -5.020    -1.791    -1.674 -0.6503  0.0116  0.7596
     8 H(1)   Bbb    -0.0068    -3.606    -1.287    -1.203  0.6074 -0.5926  0.5291
              Bcc     0.0162     8.625     3.078     2.877  0.4562  0.8054  0.3784
 
              Baa    -0.0094    -5.022    -1.792    -1.675  0.6526 -0.0129  0.7576
     9 H(1)   Bbb    -0.0068    -3.606    -1.287    -1.203  0.6055 -0.5922 -0.5317
              Bcc     0.0162     8.628     3.079     2.878  0.4555  0.8057 -0.3787
 
              Baa    -0.0079    -4.239    -1.513    -1.414  0.9680  0.2509 -0.0020
    10 H(1)   Bbb    -0.0066    -3.511    -1.253    -1.171  0.0021  0.0001  1.0000
              Bcc     0.0145     7.750     2.765     2.585 -0.2509  0.9680  0.0004
 
              Baa    -0.0582   -31.050   -11.079   -10.357  0.6170  0.7870  0.0001
    11 H(1)   Bbb    -0.0077    -4.094    -1.461    -1.366 -0.0002  0.0000  1.0000
              Bcc     0.0659    35.144    12.540    11.723  0.7870 -0.6170  0.0002
 
              Baa    -0.0029    -1.549    -0.553    -0.517 -0.2725 -0.1385  0.9521
    12 H(1)   Bbb    -0.0019    -0.999    -0.357    -0.333 -0.0167  0.9901  0.1393
              Bcc     0.0048     2.548     0.909     0.850  0.9620 -0.0220  0.2722
 
              Baa    -0.0029    -1.550    -0.553    -0.517  0.2723  0.1386  0.9522
    13 H(1)   Bbb    -0.0019    -1.000    -0.357    -0.333 -0.0166  0.9901 -0.1394
              Bcc     0.0048     2.549     0.910     0.850  0.9621 -0.0221 -0.2719
 
              Baa    -0.0013    -0.706    -0.252    -0.235  0.1853 -0.0472  0.9815
    14 H(1)   Bbb    -0.0012    -0.629    -0.225    -0.210  0.4180  0.9078 -0.0353
              Bcc     0.0025     1.335     0.476     0.445  0.8893 -0.4168 -0.1879
 
              Baa    -0.0013    -0.706    -0.252    -0.235 -0.1849  0.0474  0.9816
    15 H(1)   Bbb    -0.0012    -0.629    -0.225    -0.210  0.4182  0.9077  0.0349
              Bcc     0.0025     1.335     0.476     0.445  0.8894 -0.4169  0.1876
 
              Baa    -0.0009    -0.458    -0.164    -0.153  0.0001  0.0002  1.0000
    16 H(1)   Bbb    -0.0008    -0.429    -0.153    -0.143  0.2230  0.9748 -0.0003
              Bcc     0.0017     0.887     0.317     0.296  0.9748 -0.2230 -0.0001
 

 ---------------------------------------------------------------------------------

 No NMR shielding tensors so no spin-rotation constants.
 Leave Link  601 at Tue Jan  7 16:44:01 2025, MaxMem=  4026531840 cpu:               8.3 elap:               0.4
 (Enter /usr/local/intel/g16/l607.exe)
 ******************************Gaussian NBO Version 3.1******************************
             N A T U R A L   A T O M I C   O R B I T A L   A N D
          N A T U R A L   B O N D   O R B I T A L   A N A L Y S I S
 ******************************Gaussian NBO Version 3.1******************************
       /RESON  / : Allow strongly delocalized NBO set

 Analyzing the SCF density

 Job title: data_set_12-dimer-nBA_opt                                       

 Storage needed:    221527 in NPA,    294864 in NBO (4026530400 available)
 GSVD:  LWork=       14281 too small for GESVD, short by      102509 words or      102509 for optimal perf.


 NATURAL POPULATIONS:  Natural atomic orbital occupancies 
                                                          
   NAO  Atom  No  lang   Type(AO)    Occupancy
 --------------------------------------------
     1    C    1  S      Cor( 1S)     1.99949
     2    C    1  S      Val( 2S)     1.12225
     3    C    1  S      Ryd( 3S)     0.00173
     4    C    1  S      Ryd( 4S)     0.00003
     5    C    1  S      Ryd( 5S)     0.00000
     6    C    1  px     Val( 2p)     1.23765
     7    C    1  px     Ryd( 3p)     0.00150
     8    C    1  px     Ryd( 4p)     0.00008
     9    C    1  py     Val( 2p)     1.09417
    10    C    1  py     Ryd( 3p)     0.00088
    11    C    1  py     Ryd( 4p)     0.00020
    12    C    1  pz     Val( 2p)     1.21826
    13    C    1  pz     Ryd( 3p)     0.00057
    14    C    1  pz     Ryd( 4p)     0.00014
    15    C    1  dxy    Ryd( 3d)     0.00110
    16    C    1  dxy    Ryd( 4d)     0.00033
    17    C    1  dxz    Ryd( 3d)     0.00184
    18    C    1  dxz    Ryd( 4d)     0.00004
    19    C    1  dyz    Ryd( 3d)     0.00018
    20    C    1  dyz    Ryd( 4d)     0.00009
    21    C    1  dx2y2  Ryd( 3d)     0.00165
    22    C    1  dx2y2  Ryd( 4d)     0.00008
    23    C    1  dz2    Ryd( 3d)     0.00156
    24    C    1  dz2    Ryd( 4d)     0.00005
    25    C    1  f(0)   Ryd( 4f)     0.00001
    26    C    1  f(C1)  Ryd( 4f)     0.00018
    27    C    1  f(S1)  Ryd( 4f)     0.00006
    28    C    1  f(C2)  Ryd( 4f)     0.00001
    29    C    1  f(S2)  Ryd( 4f)     0.00002
    30    C    1  f(C3)  Ryd( 4f)     0.00008
    31    C    1  f(S3)  Ryd( 4f)     0.00012
 
    32    C    2  S      Cor( 1S)     1.99931
    33    C    2  S      Val( 2S)     1.05869
    34    C    2  S      Ryd( 3S)     0.00137
    35    C    2  S      Ryd( 4S)     0.00008
    36    C    2  S      Ryd( 5S)     0.00000
    37    C    2  px     Val( 2p)     1.06995
    38    C    2  px     Ryd( 3p)     0.00180
    39    C    2  px     Ryd( 4p)     0.00016
    40    C    2  py     Val( 2p)     1.04320
    41    C    2  py     Ryd( 3p)     0.00247
    42    C    2  py     Ryd( 4p)     0.00023
    43    C    2  pz     Val( 2p)     0.89445
    44    C    2  pz     Ryd( 3p)     0.00297
    45    C    2  pz     Ryd( 4p)     0.00021
    46    C    2  dxy    Ryd( 3d)     0.00111
    47    C    2  dxy    Ryd( 4d)     0.00008
    48    C    2  dxz    Ryd( 3d)     0.00030
    49    C    2  dxz    Ryd( 4d)     0.00011
    50    C    2  dyz    Ryd( 3d)     0.00031
    51    C    2  dyz    Ryd( 4d)     0.00016
    52    C    2  dx2y2  Ryd( 3d)     0.00082
    53    C    2  dx2y2  Ryd( 4d)     0.00014
    54    C    2  dz2    Ryd( 3d)     0.00045
    55    C    2  dz2    Ryd( 4d)     0.00009
    56    C    2  f(0)   Ryd( 4f)     0.00021
    57    C    2  f(C1)  Ryd( 4f)     0.00008
    58    C    2  f(S1)  Ryd( 4f)     0.00011
    59    C    2  f(C2)  Ryd( 4f)     0.00006
    60    C    2  f(S2)  Ryd( 4f)     0.00005
    61    C    2  f(C3)  Ryd( 4f)     0.00006
    62    C    2  f(S3)  Ryd( 4f)     0.00020
 
    63    C    3  S      Cor( 1S)     1.99933
    64    C    3  S      Val( 2S)     0.84023
    65    C    3  S      Ryd( 3S)     0.00371
    66    C    3  S      Ryd( 4S)     0.00019
    67    C    3  S      Ryd( 5S)     0.00000
    68    C    3  px     Val( 2p)     0.88916
    69    C    3  px     Ryd( 3p)     0.00374
    70    C    3  px     Ryd( 4p)     0.00022
    71    C    3  py     Val( 2p)     0.77449
    72    C    3  py     Ryd( 3p)     0.01502
    73    C    3  py     Ryd( 4p)     0.00024
    74    C    3  pz     Val( 2p)     0.80691
    75    C    3  pz     Ryd( 3p)     0.00115
    76    C    3  pz     Ryd( 4p)     0.00051
    77    C    3  dxy    Ryd( 3d)     0.00187
    78    C    3  dxy    Ryd( 4d)     0.00039
    79    C    3  dxz    Ryd( 3d)     0.00160
    80    C    3  dxz    Ryd( 4d)     0.00020
    81    C    3  dyz    Ryd( 3d)     0.00237
    82    C    3  dyz    Ryd( 4d)     0.00016
    83    C    3  dx2y2  Ryd( 3d)     0.00088
    84    C    3  dx2y2  Ryd( 4d)     0.00027
    85    C    3  dz2    Ryd( 4d)     0.00016
    86    C    3  dz2    Ryd( 3d)     0.00046
    87    C    3  f(0)   Ryd( 4f)     0.00022
    88    C    3  f(C1)  Ryd( 4f)     0.00006
    89    C    3  f(S1)  Ryd( 4f)     0.00007
    90    C    3  f(C2)  Ryd( 4f)     0.00008
    91    C    3  f(S2)  Ryd( 4f)     0.00001
    92    C    3  f(C3)  Ryd( 4f)     0.00008
    93    C    3  f(S3)  Ryd( 4f)     0.00013
 
    94    O    4  S      Cor( 1S)     1.99980
    95    O    4  S      Val( 2S)     1.72560
    96    O    4  S      Ryd( 3S)     0.00085
    97    O    4  S      Ryd( 4S)     0.00010
    98    O    4  S      Ryd( 5S)     0.00000
    99    O    4  px     Val( 2p)     1.85615
   100    O    4  px     Ryd( 3p)     0.00191
   101    O    4  px     Ryd( 4p)     0.00004
   102    O    4  py     Val( 2p)     1.52262
   103    O    4  py     Ryd( 3p)     0.00108
   104    O    4  py     Ryd( 4p)     0.00024
   105    O    4  pz     Val( 2p)     1.45983
   106    O    4  pz     Ryd( 3p)     0.00146
   107    O    4  pz     Ryd( 4p)     0.00002
   108    O    4  dxy    Ryd( 3d)     0.00524
   109    O    4  dxy    Ryd( 4d)     0.00006
   110    O    4  dxz    Ryd( 3d)     0.00033
   111    O    4  dxz    Ryd( 4d)     0.00001
   112    O    4  dyz    Ryd( 3d)     0.00594
   113    O    4  dyz    Ryd( 4d)     0.00007
   114    O    4  dx2y2  Ryd( 3d)     0.00664
   115    O    4  dx2y2  Ryd( 4d)     0.00004
   116    O    4  dz2    Ryd( 3d)     0.00215
   117    O    4  dz2    Ryd( 4d)     0.00001
   118    O    4  f(0)   Ryd( 4f)     0.00006
   119    O    4  f(C1)  Ryd( 4f)     0.00001
   120    O    4  f(S1)  Ryd( 4f)     0.00006
   121    O    4  f(C2)  Ryd( 4f)     0.00017
   122    O    4  f(S2)  Ryd( 4f)     0.00003
   123    O    4  f(C3)  Ryd( 4f)     0.00026
   124    O    4  f(S3)  Ryd( 4f)     0.00019
 
   125    O    5  S      Cor( 1S)     1.99977
   126    O    5  S      Val( 2S)     1.63756
   127    O    5  S      Ryd( 3S)     0.00125
   128    O    5  S      Ryd( 4S)     0.00019
   129    O    5  S      Ryd( 5S)     0.00000
   130    O    5  px     Val( 2p)     1.33865
   131    O    5  px     Ryd( 3p)     0.00135
   132    O    5  px     Ryd( 4p)     0.00012
   133    O    5  py     Val( 2p)     1.70829
   134    O    5  py     Ryd( 3p)     0.00286
   135    O    5  py     Ryd( 4p)     0.00015
   136    O    5  pz     Val( 2p)     1.82583
   137    O    5  pz     Ryd( 3p)     0.00267
   138    O    5  pz     Ryd( 4p)     0.00005
   139    O    5  dxy    Ryd( 3d)     0.00182
   140    O    5  dxy    Ryd( 4d)     0.00005
   141    O    5  dxz    Ryd( 3d)     0.00026
   142    O    5  dxz    Ryd( 4d)     0.00004
   143    O    5  dyz    Ryd( 3d)     0.00135
   144    O    5  dyz    Ryd( 4d)     0.00004
   145    O    5  dx2y2  Ryd( 3d)     0.00090
   146    O    5  dx2y2  Ryd( 4d)     0.00004
   147    O    5  dz2    Ryd( 3d)     0.00102
   148    O    5  dz2    Ryd( 4d)     0.00001
   149    O    5  f(0)   Ryd( 4f)     0.00013
   150    O    5  f(C1)  Ryd( 4f)     0.00008
   151    O    5  f(S1)  Ryd( 4f)     0.00004
   152    O    5  f(C2)  Ryd( 4f)     0.00005
   153    O    5  f(S2)  Ryd( 4f)     0.00004
   154    O    5  f(C3)  Ryd( 4f)     0.00008
   155    O    5  f(S3)  Ryd( 4f)     0.00011
 
   156    C    6  S      Cor( 1S)     1.99930
   157    C    6  S      Val( 2S)     1.04853
   158    C    6  S      Ryd( 3S)     0.00440
   159    C    6  S      Ryd( 4S)     0.00015
   160    C    6  S      Ryd( 5S)     0.00000
   161    C    6  px     Val( 2p)     0.74317
   162    C    6  px     Ryd( 3p)     0.00205
   163    C    6  px     Ryd( 4p)     0.00042
   164    C    6  py     Val( 2p)     1.06243
   165    C    6  py     Ryd( 3p)     0.00189
   166    C    6  py     Ryd( 4p)     0.00023
   167    C    6  pz     Val( 2p)     1.19640
   168    C    6  pz     Ryd( 3p)     0.00143
   169    C    6  pz     Ryd( 4p)     0.00023
   170    C    6  dxy    Ryd( 3d)     0.00132
   171    C    6  dxy    Ryd( 4d)     0.00031
   172    C    6  dxz    Ryd( 3d)     0.00096
   173    C    6  dxz    Ryd( 4d)     0.00011
   174    C    6  dyz    Ryd( 3d)     0.00155
   175    C    6  dyz    Ryd( 4d)     0.00030
   176    C    6  dx2y2  Ryd( 3d)     0.00081
   177    C    6  dx2y2  Ryd( 4d)     0.00026
   178    C    6  dz2    Ryd( 3d)     0.00156
   179    C    6  dz2    Ryd( 4d)     0.00009
   180    C    6  f(0)   Ryd( 4f)     0.00001
   181    C    6  f(C1)  Ryd( 4f)     0.00003
   182    C    6  f(S1)  Ryd( 4f)     0.00013
   183    C    6  f(C2)  Ryd( 4f)     0.00001
   184    C    6  f(S2)  Ryd( 4f)     0.00002
   185    C    6  f(C3)  Ryd( 4f)     0.00005
   186    C    6  f(S3)  Ryd( 4f)     0.00005
 
   187    C    7  S      Cor( 1S)     1.99951
   188    C    7  S      Val( 2S)     1.11715
   189    C    7  S      Ryd( 3S)     0.00108
   190    C    7  S      Ryd( 4S)     0.00011
   191    C    7  S      Ryd( 5S)     0.00000
   192    C    7  px     Val( 2p)     1.15282
   193    C    7  px     Ryd( 3p)     0.00134
   194    C    7  px     Ryd( 4p)     0.00015
   195    C    7  py     Val( 2p)     1.11998
   196    C    7  py     Ryd( 3p)     0.00045
   197    C    7  py     Ryd( 4p)     0.00010
   198    C    7  pz     Val( 2p)     1.22020
   199    C    7  pz     Ryd( 3p)     0.00042
   200    C    7  pz     Ryd( 4p)     0.00005
   201    C    7  dxy    Ryd( 3d)     0.00228
   202    C    7  dxy    Ryd( 4d)     0.00006
   203    C    7  dxz    Ryd( 3d)     0.00022
   204    C    7  dxz    Ryd( 4d)     0.00002
   205    C    7  dyz    Ryd( 3d)     0.00159
   206    C    7  dyz    Ryd( 4d)     0.00007
   207    C    7  dx2y2  Ryd( 3d)     0.00070
   208    C    7  dx2y2  Ryd( 4d)     0.00002
   209    C    7  dz2    Ryd( 3d)     0.00175
   210    C    7  dz2    Ryd( 4d)     0.00002
   211    C    7  f(0)   Ryd( 4f)     0.00000
   212    C    7  f(C1)  Ryd( 4f)     0.00007
   213    C    7  f(S1)  Ryd( 4f)     0.00015
   214    C    7  f(C2)  Ryd( 4f)     0.00002
   215    C    7  f(S2)  Ryd( 4f)     0.00001
   216    C    7  f(C3)  Ryd( 4f)     0.00008
   217    C    7  f(S3)  Ryd( 4f)     0.00006
 
   218    H    8  S      Val( 1S)     0.76982
   219    H    8  S      Ryd( 2S)     0.00064
   220    H    8  S      Ryd( 3S)     0.00009
   221    H    8  px     Ryd( 2p)     0.00011
   222    H    8  py     Ryd( 2p)     0.00011
   223    H    8  pz     Ryd( 2p)     0.00017
 
   224    H    9  S      Val( 1S)     0.76980
   225    H    9  S      Ryd( 2S)     0.00064
   226    H    9  S      Ryd( 3S)     0.00009
   227    H    9  px     Ryd( 2p)     0.00011
   228    H    9  py     Ryd( 2p)     0.00011
   229    H    9  pz     Ryd( 2p)     0.00018
 
   230    H   10  S      Val( 1S)     0.75962
   231    H   10  S      Ryd( 2S)     0.00057
   232    H   10  S      Ryd( 3S)     0.00008
   233    H   10  px     Ryd( 2p)     0.00021
   234    H   10  py     Ryd( 2p)     0.00010
   235    H   10  pz     Ryd( 2p)     0.00007
 
   236    H   11  S      Val( 1S)     0.79837
   237    H   11  S      Ryd( 2S)     0.00038
   238    H   11  S      Ryd( 3S)     0.00012
   239    H   11  px     Ryd( 2p)     0.00028
   240    H   11  py     Ryd( 2p)     0.00036
   241    H   11  pz     Ryd( 2p)     0.00009
 
   242    H   12  S      Val( 1S)     0.81051
   243    H   12  S      Ryd( 2S)     0.00078
   244    H   12  S      Ryd( 3S)     0.00013
   245    H   12  px     Ryd( 2p)     0.00007
   246    H   12  py     Ryd( 2p)     0.00023
   247    H   12  pz     Ryd( 2p)     0.00024
 
   248    H   13  S      Val( 1S)     0.81047
   249    H   13  S      Ryd( 2S)     0.00078
   250    H   13  S      Ryd( 3S)     0.00013
   251    H   13  px     Ryd( 2p)     0.00007
   252    H   13  py     Ryd( 2p)     0.00023
   253    H   13  pz     Ryd( 2p)     0.00024
 
   254    H   14  S      Val( 1S)     0.78739
   255    H   14  S      Ryd( 2S)     0.00053
   256    H   14  S      Ryd( 3S)     0.00011
   257    H   14  px     Ryd( 2p)     0.00008
   258    H   14  py     Ryd( 2p)     0.00015
   259    H   14  pz     Ryd( 2p)     0.00018
 
   260    H   15  S      Val( 1S)     0.78740
   261    H   15  S      Ryd( 2S)     0.00053
   262    H   15  S      Ryd( 3S)     0.00011
   263    H   15  px     Ryd( 2p)     0.00008
   264    H   15  py     Ryd( 2p)     0.00015
   265    H   15  pz     Ryd( 2p)     0.00018
 
   266    H   16  S      Val( 1S)     0.78446
   267    H   16  S      Ryd( 2S)     0.00019
   268    H   16  S      Ryd( 3S)     0.00010
[...]
     6         -4.05914268          0.17743903          2.78937940
     6         -3.64542474          0.15973941          0.02428828
     6         -1.20393693          0.05439009         -1.20283392
     8         -0.91788635          0.04074153         -3.47474098
     8          0.74788213         -0.03200558          0.43575266
     6          3.20304870         -0.13995519         -0.68941513
     6          5.11527238         -0.22479905          1.42519324
     1         -5.23335721         -1.42638642          3.36034665
     1         -5.08774224          1.87815646          3.36094805
     1         -2.28434537          0.09915490          3.81937231
     1         -5.23201867          0.22845799         -1.26016299
     1          3.45671630          1.51330848         -1.89538970
     1          3.31029954         -1.80849274         -1.89626569
     1          4.82049350         -1.88538512          2.60691105
     1          4.96767656          1.45464318          2.60781221
     1          7.01897043         -0.30847632          0.64331971

 Electric dipole moment (dipole orientation):
 (Debye = 10**-18 statcoulomb cm , SI units = C m)
                  (au)            (Debye)         (10**-30 SI)
   Tot        0.980016D+00      0.249095D+01      0.830892D+01
   x          0.000000D+00      0.000000D+00      0.000000D+00
   y          0.000000D+00      0.000000D+00      0.000000D+00
   z          0.980016D+00      0.249095D+01      0.830892D+01

 Dipole polarizability, Alpha (dipole orientation).
 (esu units = cm**3 , SI units = C**2 m**2 J**-1)
 Alpha(0;0):
               (au)            (10**-24 esu)      (10**-40 SI)
   iso        0.668065D+02      0.989969D+01      0.110149D+02
   aniso      0.265545D+02      0.393497D+01      0.437824D+01
   xx         0.796843D+02      0.118080D+02      0.131382D+02
   yx        -0.127384D+01     -0.188763D+00     -0.210027D+00
   yy         0.506212D+02      0.750128D+01      0.834630D+01
   zx        -0.374527D+01     -0.554992D+00     -0.617512D+00
   zy         0.162546D+00      0.240869D-01      0.268003D-01
   zz         0.701139D+02      0.103898D+02      0.115602D+02

 ----------------------------------------------------------------------
 Unable to Open any file for archive entry.
 1\1\GINC-BD24\Freq\UM062X\def2TZVP\C5H9O2(2)\MIYAO\07-Jan-2025\0\\#P G
 eom=AllCheck Guess=TCheck SCRF=Check GenChk UM062X/def2TZVP Freq\\data
 _set_12-dimer-nBA_opt\\0,2\C,-2.2125913524,-1.380574302,-0.0001025723\
 C,-1.9296395442,0.0716579577,0.0000328113\C,-0.6092801254,0.6638106925
 ,0.0008365239\O,-0.4052720313,1.8582688173,0.0001728507\O,0.3856539821
 ,-0.2477040767,0.0004122233\C,1.7109372132,0.2902292345,0.0001612402\C
 ,2.6738992912,-0.872026508,-0.0003444575\H,-2.8088888989,-1.6569401274
 ,-0.8751706816\H,-2.808439961,-1.6571731463,0.8752149797\H,-1.29724813
 34,-1.9662400679,-0.0003571932\H,-2.7394667323,0.7874844952,-0.0004194
 351\H,1.834596342,0.9236517198,0.8800285003\H,1.8341295326,0.924030415
 2,-0.8794997063\H,2.5292577813,-1.4916817664,-0.8850356397\H,2.5297070
 822,-1.4920724465,0.8841464309\H,3.6994055542,-0.502799891,-0.00052287
 44\\Version=ES64L-G16RevC.01\State=2-A\HF=-346.3438642\S2=0.759231\S2-
 1=0.\S2A=0.750058\RMSD=1.974e-09\RMSF=4.753e-05\ZeroPoint=0.1341319\Th
 ermal=0.1427937\ETot=-346.2010704\HTot=-346.2001262\GTot=-346.2444872\
 Dipole=-0.042886,-0.9790768,0.0000588\DipoleDeriv=-0.0928903,-0.099684
 8,-0.00004,-0.0328118,-0.1267102,0.0000163,0.0000657,0.0001574,0.07174
 95,-0.2708123,-0.0940545,0.0000623,-0.0109727,0.2700339,-0.000059,-0.0
 002215,-0.000235,-0.1581156,1.862239,-0.0108881,0.0001657,-0.3652479,1
 .4520535,0.0002856,-0.0001244,0.0000635,0.2840855,-0.7231262,-0.203992
 8,-0.0000664,-0.0404054,-1.2111177,-0.0002867,0.0000983,0.0003358,-0.3
 591693,-1.7822168,0.3426121,0.0000486,0.4187143,-0.7406802,0.0000654,0
 .0005951,-0.0002161,-0.254858,1.0112554,-0.0646377,-0.000104,0.0929877
 ,0.3038516,0.000026,-0.0001796,0.0000661,0.2946971,-0.0223298,0.053742
 7,0.0000219,0.071306,0.0101515,-0.000057,0.0000384,-0.0000455,0.077939
 6,0.0460846,-0.0147902,-0.0673341,-0.0576962,0.0186591,-0.0101848,-0.0
 886797,-0.0457634,-0.0142474,0.046177,-0.0148055,0.0672987,-0.0577324,
 0.0186266,0.0101978,0.0885968,0.0457099,-0.0142929,0.0197522,0.0864729
 ,0.0000352,0.0402869,0.02481,-0.0000167,0.,-0.0000701,0.0777181,-0.010
 0972,0.0085228,-0.0000396,0.0182533,-0.023012,0.0000026,-0.000136,0.00
 00139,0.1244359,-0.04796,0.038286,0.0226018,-0.041173,-0.0042289,-0.05
 98301,-0.0232554,-0.0739255,-0.052929,-0.0479251,0.0383325,-0.0226224,
 -0.0411648,-0.004253,0.0598272,0.0232183,0.0738773,-0.0528323,0.060936
 3,-0.0196752,-0.04292,0.0329083,-0.0076705,-0.061212,-0.0137909,-0.087
 4661,-0.0521514,0.0609634,-0.0196493,0.0428588,0.0329325,-0.0077369,0.
 0612193,0.0137418,0.0875003,-0.052118,-0.1100504,-0.025791,0.0000335,-
 0.0601847,0.0272232,0.0000061,0.000033,-0.0000024,0.080088\Polar=80.04
 93758,3.3135982,69.8045244,0.0014298,0.0002687,50.5654513\Quadrupole=5
 .5794835,-5.2547752,-0.3247083,1.7924409,0.0003692,0.0003032\PG=C01 [X
 (C5H9O2)]\NImag=0\\0.57694565,-0.03474640,0.50972051,0.00005763,0.0000
 3323,0.50399698,-0.09765187,-0.02727074,-0.00002708,0.61618468,-0.0181
 4064,-0.24579416,-0.00001862,-0.03411848,0.62046874,-0.00003628,-0.000
 01317,-0.04618887,0.00024818,-0.00004261,0.09409978,0.00927581,-0.0065
 8938,-0.00001232,-0.23033636,-0.05600709,-0.00010870,0.63625983,-0.022
 35602,-0.00657655,-0.00003443,-0.03541335,-0.09993048,-0.00002623,0.07
 841238,0.90742639,0.00000462,-0.00000112,0.00607021,-0.00009659,-0.000
 03632,-0.06112351,0.00001730,-0.00022705,0.18852117,-0.00622994,0.0005
 3042,-0.00000646,-0.00634341,-0.04936343,0.00001371,-0.13637278,-0.115
 85376,0.00006071,0.13055225,-0.00644797,0.00130178,0.00000032,-0.04563
 764,-0.05302715,0.00000633,-0.09459495,-0.64667968,0.00029023,0.113929
 59,0.79340888,0.00000199,-0.00000156,0.00182498,0.00000444,0.00001452,
 0.01811596,0.00004638,0.00029074,-0.07330583,-0.00006225,-0.00031069,0
 .03219798,-0.00335289,0.00041887,-0.00000040,-0.05917477,0.02792124,0.
 00000534,-0.20121871,0.07770791,0.00002626,0.01234211,0.04318502,0.000
 00021,0.52687566,0.00062197,-0.00204189,-0.00000089,0.00480750,0.01061
 194,0.00000135,0.04947278,-0.17490145,-0.00001638,0.04796025,-0.088150
 28,0.00000779,-0.03861954,0.37782639,0.00000217,-0.00000072,-0.0003955
 8,-0.00001330,-0.00000286,0.01016607,0.00003831,-0.00003953,-0.0637495
 8,-0.00000758,0.00002064,0.02683993,-0.00006315,0.00001175,0.07817167,
 0.00089663,0.00046484,0.00000045,0.00488631,0.00202241,0.00000309,-0.0
 6543944,0.01739010,0.00000762,0.00188562,-0.01662785,0.00000729,-0.172
 25289,-0.04460756,0.00001663,0.46132765,-0.00036282,-0.00024951,0.0000
 0040,0.00540975,-0.00414571,-0.00000218,0.02075068,0.02201264,-0.00000
 181,0.00441075,-0.00632536,0.00000201,-0.06875100,-0.12200656,-0.00000
 029,-0.02082886,0.57725506,-0.00000090,-0.00000053,-0.00007731,-0.0000
 0367,-0.00000285,0.00407526,0.00002833,0.00000159,0.00168940,0.0000016
 3,-0.00000057,-0.00643359,0.00001328,-0.00000184,-0.06899464,0.0000374
 1,0.00000324,0.62140681,0.00006778,0.00010159,0.,-0.00134297,0.0013654
 5,0.00000015,-0.00306477,-0.00740258,0.00000020,0.00197575,0.00204351,
 -0.00000111,-0.04672414,0.03026618,0.00002240,-0.12061471,0.06262209,0
 .00002045,0.55545879,-0.00003743,0.00007051,0.00000014,-0.00089921,0.0
 0093891,-0.00000016,-0.00186999,-0.00528805,0.00000056,0.00185944,0.00
 179015,-0.00000145,-0.01460622,0.01454766,0.00000907,0.07837377,-0.177
 61527,-0.00003978,0.04378598,0.53891395,-0.00000013,0.00000007,-0.0000
 5985,0.00000019,-0.00000041,0.00005207,-0.00000007,0.00000285,-0.00007
 086,-0.00000222,-0.00000032,0.00121432,0.00001113,-0.00000518,0.001685
 39,0.00002473,-0.00003533,-0.08652037,0.00001831,-0.00002171,0.5847995
 3,-0.12026281,-0.02786496,-0.11680255,-0.00509140,-0.00646892,-0.00328
 348,-0.00020844,-0.00048800,-0.00062054,-0.00032385,-0.00052136,0.0001
 9405,-0.00028701,-0.00071373,0.00030455,0.00029506,-0.00004479,-0.0000
 2311,-0.00000962,-0.00000837,-0.00004482,0.12943571,-0.03223694,-0.058
 52961,-0.05623226,-0.02262786,-0.01236150,-0.02232740,0.00507572,-0.00
 191582,-0.00075414,-0.00186958,-0.00226049,0.00064596,-0.00098232,0.00
 116221,-0.00010989,0.00020997,0.00010425,-0.00008728,-0.00001924,-0.00
 005216,0.00003175,0.03978381,0.06627271,-0.11610990,-0.05012445,-0.209
 59295,0.00132807,-0.00178034,0.00258933,0.00129869,0.00084635,-0.00153
 055,-0.00010989,-0.00029907,0.00017363,-0.00010658,0.00008434,0.000063
 30,0.00010015,0.00002744,-0.00001813,-0.00000495,0.00000045,-0.0000056
 1,0.12709666,0.05655263,0.22984791,-0.12012228,-0.02786524,0.11673519,
 -0.00508971,-0.00647482,0.00328222,-0.00020746,-0.00048724,0.00061528,
 -0.00032389,-0.00052204,-0.00019288,-0.00028655,-0.00071233,-0.0003048
 7,0.00029434,-0.00004483,0.00002279,-0.00000961,-0.00000836,0.00004488
 ,0.00889763,0.00444304,-0.01463182,0.12929091,-0.03224792,-0.05853812,
 0.05628965,-0.02261155,-0.01238546,0.02232376,0.00507886,-0.00190214,0
 .00075203,-0.00186671,-0.00226187,-0.00064340,-0.00098320,0.00116210,0
 .00011213,0.00021020,0.00010396,0.00008742,-0.00001922,-0.00005216,-0.
 00003183,0.00443529,0.00243217,-0.00611829,0.03978393,0.06629200,0.116
 03515,0.05015478,-0.20965668,-0.00132668,0.00179320,0.00259561,-0.0012
 9548,-0.00084518,-0.00153326,0.00011022,0.00030043,0.00017377,0.000106
 65,-0.00008378,0.00006346,-0.00010020,-0.00002753,-0.00001819,0.000004
 95,-0.00000049,-0.00000563,0.01461657,0.00612326,-0.02322779,-0.127021
 81,-0.05661121,0.22992508,-0.24910532,0.12912862,0.00005134,0.00862101
 ,-0.00302120,-0.00000101,0.00009277,0.00026057,-0.00000185,0.00009338,
 0.00038973,0.00000017,-0.00264067,-0.00249060,-0.00000096,-0.00027732,
 -0.00025700,-0.00000004,0.00009494,0.00001956,-0.00000003,-0.01260942,
 0.00756222,0.00134698,-0.01260604,0.00755924,-0.00133659,0.26813110,0.
 12380565,-0.12686979,-0.00004318,0.02994959,-0.01984077,-0.00000163,0.
 00383327,-0.00060087,0.00000106,-0.00057856,0.00085128,-0.00000050,-0.
 00117841,0.00124546,0.00000062,-0.00097863,0.00031990,0.00000071,-0.00
 004669,0.00001022,-0.00000007,-0.00776046,0.00443951,0.00126432,-0.007
 76377,0.00444397,-0.00125770,-0.13693600,0.14041681,0.00005014,-0.0000
 4560,-0.04775493,0.00000020,0.00000578,-0.00168986,0.00000417,-0.00000
 134,-0.00026065,-0.00000055,0.00000011,0.00012781,-0.00000117,0.000000
 97,-0.00038107,-0.00000041,0.,-0.00011473,0.00000004,0.00000001,0.0001
 4883,-0.02177292,0.01506071,0.00096832,0.02178174,-0.01506150,0.000951
 86,-0.00006059,0.00003965,0.04616088,0.00976238,-0.00630575,0.00000361
 ,-0.22317784,0.14214028,-0.00012193,-0.01671031,0.02320856,-0.00001077
 ,0.00276702,-0.00091415,0.00000330,-0.00642142,-0.00343976,-0.00000212
 ,0.00050550,0.00139722,-0.00000030,-0.00045621,-0.00036344,0.00000011,
 0.00023378,0.00073445,-0.00020118,0.00023224,0.00073453,0.00020112,0.0
 0014878,-0.00267901,-0.00000077,0.23346252,0.02207231,-0.01240838,0.00
 000628,0.14906864,-0.18388793,0.00008077,-0.00972913,0.00909771,-0.000
 00664,0.00024892,0.00032564,-0.00000016,-0.00375580,-0.00046390,0.0000
 0054,-0.00020318,0.00059918,0.00000032,-0.00018869,-0.00015518,0.00000
 005,-0.00026878,0.00066412,-0.00044609,-0.00026878,0.00066086,0.000446
 74,-0.00232421,-0.00460441,0.00000108,-0.15458200,0.19007211,-0.000004
 43,-0.00000098,0.00167703,-0.00011417,0.00007127,-0.02183529,-0.000015
 37,0.00002770,0.00389601,0.00000388,-0.00000623,-0.00169019,-0.0000061
 8,-0.00000489,0.00213575,0.00000136,0.00000171,0.00068983,-0.00000062,
 -0.00000049,-0.00003298,0.00029350,0.00108438,0.00072808,-0.00028858,-
 0.00108639,0.00072731,0.00000249,-0.00000325,0.00197570,0.00012870,-0.
 00008296,0.01181065,-0.00005407,-0.00001765,0.00000041,-0.00070222,-0.
 00008155,0.00084421,0.00404323,-0.00745193,-0.00113090,0.00038642,0.00
 295793,-0.00005102,-0.02422336,-0.02290036,-0.02885657,-0.04900272,-0.
 01022657,-0.01362724,0.00336341,0.01267711,0.01903503,-0.00003065,-0.0
 0002942,-0.00000861,-0.00004781,0.00000004,-0.00000030,0.00005488,0.00
 018141,-0.00004433,-0.00013958,-0.00000017,0.00004454,0.06526136,-0.00
 000943,-0.00002461,0.00008550,-0.00052754,-0.00007353,-0.00013938,0.00
 275655,-0.00086740,0.00007931,0.00000222,0.00045638,0.00046819,-0.0122
 4050,-0.00905482,-0.00974822,-0.01363367,-0.13355744,-0.11998863,-0.00
 113668,-0.01360167,-0.02029516,-0.00002950,0.00000277,-0.00000788,-0.0
 0006168,-0.00001751,-0.00000342,0.00003121,0.00009728,-0.00003958,-0.0
 0005239,0.00000498,0.00001475,0.01979406,0.14719277,0.00007999,0.00001
 958,0.00004807,-0.00035740,0.00016005,-0.00040293,0.00143465,-0.003151
 10,0.00036075,0.00158739,0.00122789,0.00050397,-0.00503716,0.00172553,
 0.00649512,-0.02088155,-0.12166640,-0.23274541,0.00086611,0.00211482,0
 .00266642,-0.00000285,0.00003631,-0.00000306,-0.00000541,0.00000726,0.
 00000294,0.00001623,0.00004267,-0.00000028,-0.00005715,-0.00001948,-0.
 00002655,0.02342675,0.13418564,0.24254097,-0.00005376,-0.00001744,0.00
 000015,-0.00070193,-0.00008113,-0.00084558,0.00404502,-0.00745376,0.00
 112884,0.00038487,0.00295979,0.00004921,-0.02420353,-0.02290898,0.0288
 6394,-0.04898254,-0.01017289,0.01352442,0.00335282,0.01268363,-0.01902
 887,-0.00004780,0.00000014,0.00000025,-0.00003056,-0.00002954,0.000008
 58,0.00005487,0.00018117,0.00004449,-0.00013961,-0.00000022,-0.0000450
 6,0.00247589,0.00269451,-0.00169735,0.06523034,-0.00000928,-0.00002464
 ,-0.00008610,-0.00052729,-0.00007274,0.00014045,0.00275667,-0.00087103
 ,-0.00007970,0.00000673,0.00045594,-0.00047130,-0.01223886,-0.00905918
 ,0.00974905,-0.01358327,-0.13365897,0.12003566,-0.00112481,-0.01360862
 ,0.02028772,-0.00006171,-0.00001752,0.00000346,-0.00002934,0.00000287,
 0.00000797,0.00003116,0.00009719,0.00003971,-0.00005243,0.00000492,-0.
 00001483,0.00268564,0.01076953,-0.01486920,0.01973418,0.14730846,-0.00
 008013,-0.00001946,0.00004796,0.00035745,-0.00016061,-0.00040268,-0.00
 143575,0.00315498,0.00036038,-0.00158907,-0.00122882,0.00050504,0.0050
 5030,-0.00171667,0.00647963,0.02077665,0.12170785,-0.23265509,-0.00086
 672,-0.00212916,0.00268566,0.00000544,-0.00000740,0.00000291,0.0000028
 2,-0.00003634,-0.00000308,-0.00001621,-0.00004276,-0.00000031,0.000057
 28,0.00001950,-0.00002629,0.00168512,0.01488095,-0.02178041,-0.0233229
 4,-0.13423246,0.24244670,-0.00004743,0.00002016,-0.00002480,0.00011735
 ,-0.00001058,-0.00001327,-0.00039200,0.00109284,-0.00004893,-0.0004602
 9,-0.00054577,-0.00014661,0.00299985,-0.00106251,-0.00001081,0.0017443
 4,0.01374118,0.02017820,-0.05212339,-0.02268430,-0.03204321,-0.0000051
 2,-0.00000787,0.00000286,0.00002564,-0.00001441,-0.00000750,-0.0000442
 9,-0.00003145,0.00004776,0.00002688,-0.00000440,0.00000876,-0.00255822
 ,0.00330963,-0.00029022,0.00066579,-0.00103904,-0.00037400,0.05309178,
 0.00002362,0.00000482,0.00000824,0.00000552,-0.00001097,-0.00002958,-0
 .00011179,-0.00051195,0.00005846,0.00048614,0.00027359,0.00023477,-0.0
 0129081,0.00193794,0.00112955,-0.00492548,-0.01726334,-0.02398940,-0.0
 2058139,-0.13266778,-0.12286287,0.00001410,0.00001875,-0.00000051,-0.0
 0000010,0.00001367,0.00000141,0.00001043,0.00000096,-0.00001640,0.0000
 0579,0.00000518,-0.00001692,0.00403298,-0.00277850,0.00102156,-0.00076
 932,0.00072382,0.00026926,0.02047348,0.14506240,0.00006519,-0.00001216
 ,0.00001655,0.00000617,-0.00007521,-0.00000004,0.00006898,-0.00005338,
 0.00006967,-0.00000067,0.00029189,-0.00005574,0.00055699,0.00030794,0.
 00018647,0.00020664,0.00058790,0.00104215,-0.03083839,-0.12457356,-0.2
 3030248,-0.00000076,0.00001099,0.00000315,-0.00002630,0.00002118,0.000
 00019,0.00005921,-0.00000858,-0.00004338,0.00001782,0.00002690,-0.0000
 0507,-0.00060429,0.00031312,0.00153412,0.00063573,-0.00010277,0.000827
 07,0.03413933,0.13672804,0.24574353,-0.00004744,0.00002014,0.00002480,
 0.00011741,-0.00001066,0.00001335,-0.00039238,0.00109365,0.00004890,-0
 .00046091,-0.00054598,0.00014728,0.00300015,-0.00106296,0.00000803,0.0
 0173367,0.01375007,-0.02017240,-0.05209358,-0.02263489,0.03194308,0.00
 002565,-0.00001444,0.00000749,-0.00000515,-0.00000786,-0.00000287,-0.0
 0004429,-0.00003138,-0.00004780,0.00002691,-0.00000440,-0.00000865,0.0
 0066555,-0.00103901,0.00037371,-0.00255761,0.00330929,0.00029423,-0.00
 038381,0.00329694,-0.00424713,0.05305940,0.00002366,0.00000482,-0.0000
 0822,0.00000535,-0.00001089,0.00002967,-0.00011117,-0.00051314,-0.0000
 5833,0.00048679,0.00027403,-0.00023523,-0.00129211,0.00193945,-0.00112
 802,-0.00491321,-0.01727389,0.02398418,-0.02053162,-0.13277732,0.12291
 478,-0.00000010,0.00001369,-0.00000140,0.00001410,0.00001876,0.0000005
 2,0.00001043,0.00000094,0.00001639,0.00000573,0.00000517,0.00001690,-0
 .00076924,0.00072387,-0.00026893,0.00403221,-0.00277782,-0.00102592,0.
 00328720,0.01156934,-0.01519724,0.02041831,0.14518333,-0.00006514,0.00
 001212,0.00001665,-0.00000612,0.00007520,-0.00000018,-0.00006898,0.000
 05284,0.00006968,0.00000121,-0.00029169,-0.00005568,-0.00055888,-0.000
 30709,0.00018613,-0.00020866,-0.00060289,0.00106279,0.03073824,0.12462
 689,-0.23022332,0.00002630,-0.00002118,0.00000015,0.00000074,-0.000010
 97,0.00000314,-0.00005914,0.00000864,-0.00004340,-0.00001781,-0.000026
 89,-0.00000510,-0.00063598,0.00010330,0.00082715,0.00060807,-0.0003165
 3,0.00153303,0.00423849,0.01520967,-0.01994510,-0.03403237,-0.13678164
 ,0.24565553,-0.00002044,-0.00000707,0.00000002,-0.00031426,0.00032912,
 -0.00000001,0.00062599,-0.00225937,-0.00000015,0.00012766,0.00089216,-
 0.00000043,-0.00443182,0.00538965,0.00000332,-0.01699950,-0.01139297,0
 .00000115,-0.28787449,-0.08628728,0.00004188,-0.00001172,-0.00002167,-
 0.00000821,-0.00001170,-0.00002167,0.00000820,0.00003561,0.00003328,0.
 ,-0.00012101,-0.00006011,-0.00000016,0.00050791,0.00014223,0.00054428,
 0.00050775,0.00014234,-0.00054447,-0.00265708,-0.00067011,-0.00003850,
 -0.00264357,-0.00066634,0.00004004,0.31328068,0.00004764,-0.00004520,-
 0.00000005,0.00038732,-0.00047829,-0.00000001,0.00087660,0.00202182,-0
 .00000017,-0.00038919,-0.00043285,0.00000030,0.00670574,-0.00475507,-0
 .00000384,0.02163043,0.01170104,-0.00000224,-0.08913391,-0.08045321,0.
 00001566,-0.00000254,0.00002693,-0.00000097,-0.00000253,0.00002691,0.0
 0000100,0.00002584,-0.00000768,0.,0.00016237,0.00007993,0.00000020,-0.
 00085226,0.00072789,-0.00056621,-0.00085235,0.00072780,0.00056706,-0.0
 1652415,-0.00637794,0.00173495,-0.01653682,-0.00638035,-0.00172977,0.0
 9445782,0.08361828,0.00000002,-0.00000003,0.00002774,0.00000031,-0.000
 00019,-0.00005073,-0.00000013,0.00000118,0.00053699,-0.00000007,-0.000
 00046,-0.00013636,0.00000337,-0.00000297,0.00104796,0.00000879,0.00000
 588,-0.00238878,0.00004095,0.00001485,-0.04603112,0.00001396,-0.000006
 46,0.00000129,-0.00001398,0.00000648,0.00000129,0.00000001,0.00000001,
 -0.00004478,0.00000010,0.00000004,-0.00001888,-0.00007682,0.00009151,-
 0.00002088,0.00007612,-0.00009114,-0.00002051,-0.02565604,-0.00774528,
 0.00092892,0.02565037,0.00774249,0.00091851,-0.00004697,-0.00001591,0.
 04524935\\0.00000584,0.00005383,-0.00000290,-0.00003764,-0.00008311,-0
 .00005459,0.00013393,-0.00003116,0.00021541,-0.00002106,0.00005515,-0.
 00008432,-0.00009230,-0.00001430,-0.00006684,-0.00002601,-0.00001332,-
 0.00000062,-0.00000679,0.00000787,-0.00000254,0.00000070,0.00000239,-0
 .00001424,0.00000300,0.00000417,0.00001344,0.00002732,-0.00002429,0.00
 000085,-0.00001448,0.00001974,-0.00000439,0.00000634,0.00001775,0.0000
 1281,0.00001120,0.00001983,-0.00001292,0.00000009,-0.00001084,-0.00000
 949,-0.00000048,-0.00001032,0.00000980,0.00001034,0.00000662,0.0000005
 4\\\@
 The archive entry for this job was punched.


 A BIRD IN THE HAND IS SAFER THAN ONE OVERHEAD.

                       -- NEWTON'S SEVENTH LAW
 Job cpu time:       0 days  2 hours 21 minutes 33.5 seconds.
 Elapsed time:       0 days  0 hours  7 minutes  6.8 seconds.
 File lengths (MBytes):  RWF=    201 Int=      0 D2E=      0 Chk=     10 Scr=      1
 Normal termination of Gaussian 16 at Tue Jan  7 16:56:21 2025.
