 Entering Gaussian System, Link 0=g16
 Input=styrene_dimer-doublet.gjf
 Output=styrene_dimer-doublet.log
 Initial command:
 /usr/local/intel/g16/l1.exe "/scr/Gau-308757.inp" -scrdir="/scr/"
 Entering Link 1 = /usr/local/intel/g16/l1.exe PID=    308759.
  
 Copyright (c) 1988-2019, Gaussian, Inc.  All Rights Reserved.
  
 This is part of the Gaussian(R) 16 program.  It is based on
 the Gaussian(R) 09 system (copyright 2009, Gaussian, Inc.),
 the Gaussian(R) 03 system (copyright 2003, Gaussian, Inc.),
 the Gaussian(R) 98 system (copyright 1998, Gaussian, Inc.),
 the Gaussian(R) 94 system (copyright 1995, Gaussian, Inc.),
 the Gaussian 92(TM) system (copyright 1992, Gaussian, Inc.),
 the Gaussian 90(TM) system (copyright 1990, Gaussian, Inc.),
 the Gaussian 88(TM) system (copyright 1988, Gaussian, Inc.),
 the Gaussian 86(TM) system (copyright 1986, Carnegie Mellon
 University), and the Gaussian 82(TM) system (copyright 1983,
 Carnegie Mellon University). Gaussian is a federally registered
 trademark of Gaussian, Inc.
  
 This software contains proprietary and confidential information,
 including trade secrets, belonging to Gaussian, Inc.
  
 This software is provided under written license and may be
 used, copied, transmitted, or stored only in accord with that
 written license.
  
 The following legend is applicable only to US Government
 contracts under FAR:
  
                    RESTRICTED RIGHTS LEGEND
  
 Use, reproduction and disclosure by the US Government is
 subject to restrictions as set forth in subparagraphs (a)
 and (c) of the Commercial Computer Software - Restricted
 Rights clause in FAR 52.227-19.
  
 Gaussian, Inc.
 340 Quinnipiac St., Bldg. 40, Wallingford CT 06492
  
  
 ---------------------------------------------------------------
 Warning -- This program may not be used in any manner that
 competes with the business of Gaussian, Inc. or will provide
 assistance to any competitor of Gaussian, Inc.  The licensee
 of this program is prohibited from giving any competitor of
 Gaussian, Inc. access to this program.  By using this program,
 the user acknowledges that Gaussian, Inc. is engaged in the
 business of creating and licensing software in the field of
 computational chemistry and represents and warrants to the
 licensee that it is not a competitor of Gaussian, Inc. and that
 it will not use this program in any manner prohibited above.
 ---------------------------------------------------------------
  

 Cite this work as:
 Gaussian 16, Revision C.01,
 M. J. Frisch, G. W. Trucks, H. B. Schlegel, G. E. Scuseria, 
 M. A. Robb, J. R. Cheeseman, G. Scalmani, V. Barone, 
 G. A. Petersson, H. Nakatsuji, X. Li, M. Caricato, A. V. Marenich, 
 J. Bloino, B. G. Janesko, R. Gomperts, B. Mennucci, H. P. Hratchian, 
 J. V. Ortiz, A. F. Izmaylov, J. L. Sonnenberg, D. Williams-Young, 
 F. Ding, F. Lipparini, F. Egidi, J. Goings, B. Peng, A. Petrone, 
 T. Henderson, D. Ranasinghe, V. G. Zakrzewski, J. Gao, N. Rega, 
 G. Zheng, W. Liang, M. Hada, M. Ehara, K. Toyota, R. Fukuda, 
 J. Hasegawa, M. Ishida, T. Nakajima, Y. Honda, O. Kitao, H. Nakai, 
 T. Vreven, K. Throssell, J. A. Montgomery, Jr., J. E. Peralta, 
 F. Ogliaro, M. J. Bearpark, J. J. Heyd, E. N. Brothers, K. N. Kudin, 
 V. N. Staroverov, T. A. Keith, R. Kobayashi, J. Normand, 
 K. Raghavachari, A. P. Rendell, J. C. Burant, S. S. Iyengar, 
 J. Tomasi, M. Cossi, J. M. Millam, M. Klene, C. Adamo, R. Cammi, 
 J. W. Ochterski, R. L. Martin, K. Morokuma, O. Farkas, 
 J. B. Foresman, and D. J. Fox, Gaussian, Inc., Wallingford CT, 2019.
 
 ******************************************
 Gaussian 16:  ES64L-G16RevC.01  3-Jul-2019
                23-Feb-2025 
 ******************************************
 %nprocshared=27
 Will use up to   27 processors via shared memory.
 %mem=100GB
 %chk=styrene_dimer_doublet.chk
 ----------------------------------
 #p M062X/DEF2TZVP opt freq pop=NBO
 ----------------------------------
 1/18=20,19=15,26=3,38=1/1,3;
 2/9=110,12=2,17=6,18=5,40=1/2;
 3/5=44,7=101,11=2,25=1,30=1,71=1,74=-55/1,2,3;
 4//1;
 5/5=2,38=5/2;
 6/7=2,8=2,9=2,10=2,28=1,40=1/1,7;
 7//1,2,3,16;
 1/18=20,19=15,26=3/3(2);
 2/9=110/2;
 99//99;
 2/9=110/2;
 3/5=44,7=101,11=2,25=1,30=1,71=1,74=-55/1,2,3;
 4/5=5,16=3,69=1/1;
 5/5=2,38=5/2;
 7//1,2,3,16;
 1/18=20,19=15,26=3/3(-5);
 2/9=110/2;
 6/7=2,8=2,9=2,10=2,19=2,28=1,40=1/1,7;
 99/9=1/99;
 Leave Link    1 at Sun Feb 23 18:42:50 2025, MaxMem= 13421772800 cpu:               0.9 elap:               0.0
 (Enter /usr/local/intel/g16/l101.exe)
 -------------
 styrene_dimer
 -------------
 Symbolic Z-matrix:
 Charge =  0 Multiplicity = 2
 C                     4.09816  -1.56952  -0.43664 
 C                     4.88858  -0.66066   0.2954 
 C                     4.31605   0.54045   0.7551 
 C                     2.97762   0.83673   0.49093 
 C                     2.15718  -0.0689   -0.25096 
 C                     2.76083  -1.28284  -0.70546 
 C                     0.78913   0.20339  -0.53713 
 C                    -1.39148   1.52484  -0.60654 
 C                    -2.21961   0.31542  -0.1852 
 C                    -2.3447   -0.04101   1.17138 
 C                    -3.11913  -1.14241   1.55687 
 C                    -3.78629  -1.91102   0.58902 
 C                    -3.6696   -1.56647  -0.76482 
 C                    -2.891    -0.46161  -1.14479 
 C                    -2.05744   2.83718  -0.14063 
 H                     4.53322  -2.49814  -0.79227 
 H                     5.92925  -0.88545   0.5038 
 H                     4.92111   1.24225   1.32068 
 H                     2.55408   1.76726   0.85571 
 H                     2.15618  -1.98894  -1.26833 
 H                     0.22007  -0.54276  -1.08935 
 H                    -1.35237   1.53669  -1.70417 
 H                    -1.83192   0.54067   1.93267 
 H                    -3.20153  -1.40377   2.60708 
 H                    -4.38546  -2.76517   0.88699 
 H                    -4.17963  -2.15427  -1.5214 
 H                    -2.80485  -0.20126  -2.19662 
 H                    -2.10851   2.8799    0.95397 
 H                    -3.07859   2.91494  -0.52728 
 H                    -1.48763   3.70676  -0.48866 
 C                     0.06596   1.44591  -0.09343 
 H                     0.06744   1.51133   1.00747 
 H                     0.6036    2.34304  -0.43888 
 
 ITRead=  0  0  0  0  0  0  0  0  0  0  0  0  0  0  0  0  0  0  0  0
 ITRead=  0  0  0  0  0  0  0  0  0  0  0  0  0
 MicOpt= -1 -1 -1 -1 -1 -1 -1 -1 -1 -1 -1 -1 -1 -1 -1 -1 -1 -1 -1 -1
 MicOpt= -1 -1 -1 -1 -1 -1 -1 -1 -1 -1 -1 -1 -1
 NAtoms=     33 NQM=       33 NQMF=       0 NMMI=      0 NMMIF=      0
                NMic=       0 NMicF=      0.
                    Isotopes and Nuclear Properties:
 (Nuclear quadrupole moments (NQMom) in fm**2, nuclear magnetic moments (NMagM)
  in nuclear magnetons)

  Atom         1           2           3           4           5           6           7           8           9          10
 IAtWgt=          12          12          12          12          12          12          12          12          12          12
 AtmWgt=  12.0000000  12.0000000  12.0000000  12.0000000  12.0000000  12.0000000  12.0000000  12.0000000  12.0000000  12.0000000
 NucSpn=           0           0           0           0           0           0           0           0           0           0
 AtZEff=  -0.0000000  -0.0000000  -0.0000000  -0.0000000  -0.0000000  -0.0000000  -0.0000000  -0.0000000  -0.0000000  -0.0000000
 NQMom=    0.0000000   0.0000000   0.0000000   0.0000000   0.0000000   0.0000000   0.0000000   0.0000000   0.0000000   0.0000000
 NMagM=    0.0000000   0.0000000   0.0000000   0.0000000   0.0000000   0.0000000   0.0000000   0.0000000   0.0000000   0.0000000
 AtZNuc=   6.0000000   6.0000000   6.0000000   6.0000000   6.0000000   6.0000000   6.0000000   6.0000000   6.0000000   6.0000000

  Atom        11          12          13          14          15          16          17          18          19          20
 IAtWgt=          12          12          12          12          12           1           1           1           1           1
 AtmWgt=  12.0000000  12.0000000  12.0000000  12.0000000  12.0000000   1.0078250   1.0078250   1.0078250   1.0078250   1.0078250
 NucSpn=           0           0           0           0           0           1           1           1           1           1
 AtZEff=  -0.0000000  -0.0000000  -0.0000000  -0.0000000  -0.0000000  -0.0000000  -0.0000000  -0.0000000  -0.0000000  -0.0000000
 NQMom=    0.0000000   0.0000000   0.0000000   0.0000000   0.0000000   0.0000000   0.0000000   0.0000000   0.0000000   0.0000000
 NMagM=    0.0000000   0.0000000   0.0000000   0.0000000   0.0000000   2.7928460   2.7928460   2.7928460   2.7928460   2.7928460
 AtZNuc=   6.0000000   6.0000000   6.0000000   6.0000000   6.0000000   1.0000000   1.0000000   1.0000000   1.0000000   1.0000000

  Atom        21          22          23          24          25          26          27          28          29          30
 IAtWgt=           1           1           1           1           1           1           1           1           1           1
 AtmWgt=   1.0078250   1.0078250   1.0078250   1.0078250   1.0078250   1.0078250   1.0078250   1.0078250   1.0078250   1.0078250
 NucSpn=           1           1           1           1           1           1           1           1           1           1
 AtZEff=  -0.0000000  -0.0000000  -0.0000000  -0.0000000  -0.0000000  -0.0000000  -0.0000000  -0.0000000  -0.0000000  -0.0000000
 NQMom=    0.0000000   0.0000000   0.0000000   0.0000000   0.0000000   0.0000000   0.0000000   0.0000000   0.0000000   0.0000000
 NMagM=    2.7928460   2.7928460   2.7928460   2.7928460   2.7928460   2.7928460   2.7928460   2.7928460   2.7928460   2.7928460
 AtZNuc=   1.0000000   1.0000000   1.0000000   1.0000000   1.0000000   1.0000000   1.0000000   1.0000000   1.0000000   1.0000000

  Atom        31          32          33
 IAtWgt=          12           1           1
 AtmWgt=  12.0000000   1.0078250   1.0078250
 NucSpn=           0           1           1
 AtZEff=  -0.0000000  -0.0000000  -0.0000000
 NQMom=    0.0000000   0.0000000   0.0000000
 NMagM=    0.0000000   2.7928460   2.7928460
 AtZNuc=   6.0000000   1.0000000   1.0000000
 Leave Link  101 at Sun Feb 23 18:42:51 2025, MaxMem= 13421772800 cpu:              17.6 elap:               0.7
 (Enter /usr/local/intel/g16/l103.exe)

 GradGradGradGradGradGradGradGradGradGradGradGradGradGradGradGradGradGrad
 Berny optimization.
 Initialization pass.
                           ----------------------------
                           !    Initial Parameters    !
                           ! (Angstroms and Degrees)  !
 --------------------------                            --------------------------
 ! Name  Definition              Value          Derivative Info.                !
 --------------------------------------------------------------------------------
 ! R1    R(1,2)                  1.4095         estimate D2E/DX2                !
 ! R2    R(1,6)                  1.3939         estimate D2E/DX2                !
 ! R3    R(1,16)                 1.0854         estimate D2E/DX2                !
 ! R4    R(2,3)                  1.4078         estimate D2E/DX2                !
 ! R5    R(2,17)                 1.0849         estimate D2E/DX2                !
 ! R6    R(3,4)                  1.396          estimate D2E/DX2                !
 ! R7    R(3,18)                 1.0856         estimate D2E/DX2                !
 ! R8    R(4,5)                  1.4296         estimate D2E/DX2                !
 ! R9    R(4,19)                 1.0855         estimate D2E/DX2                !
 ! R10   R(5,6)                  1.4299         estimate D2E/DX2                !
 ! R11   R(5,7)                  1.4239         estimate D2E/DX2                !
 ! R12   R(6,20)                 1.0867         estimate D2E/DX2                !
 ! R13   R(7,21)                 1.0888         estimate D2E/DX2                !
 ! R14   R(7,31)                 1.5046         estimate D2E/DX2                !
 ! R15   R(8,9)                  1.5251         estimate D2E/DX2                !
 ! R16   R(8,15)                 1.5436         estimate D2E/DX2                !
 ! R17   R(8,22)                 1.0984         estimate D2E/DX2                !
 ! R18   R(8,31)                 1.5471         estimate D2E/DX2                !
 ! R19   R(9,10)                 1.4082         estimate D2E/DX2                !
 ! R20   R(9,14)                 1.4055         estimate D2E/DX2                !
 ! R21   R(10,11)                1.4005         estimate D2E/DX2                !
 ! R22   R(10,23)                1.0867         estimate D2E/DX2                !
 ! R23   R(11,12)                1.4045         estimate D2E/DX2                !
 ! R24   R(11,24)                1.0854         estimate D2E/DX2                !
 ! R25   R(12,13)                1.4019         estimate D2E/DX2                !
 ! R26   R(12,25)                1.0851         estimate D2E/DX2                !
 ! R27   R(13,14)                1.404          estimate D2E/DX2                !
 ! R28   R(13,26)                1.0854         estimate D2E/DX2                !
 ! R29   R(14,27)                1.087          estimate D2E/DX2                !
 ! R30   R(15,28)                1.0966         estimate D2E/DX2                !
 ! R31   R(15,29)                1.0947         estimate D2E/DX2                !
 ! R32   R(15,30)                1.0963         estimate D2E/DX2                !
 ! R33   R(31,32)                1.1028         estimate D2E/DX2                !
 ! R34   R(31,33)                1.1015         estimate D2E/DX2                !
 ! A1    A(2,1,6)              120.3697         estimate D2E/DX2                !
 ! A2    A(2,1,16)             119.8062         estimate D2E/DX2                !
 ! A3    A(6,1,16)             119.824          estimate D2E/DX2                !
 ! A4    A(1,2,3)              119.4517         estimate D2E/DX2                !
 ! A5    A(1,2,17)             120.2712         estimate D2E/DX2                !
 ! A6    A(3,2,17)             120.277          estimate D2E/DX2                !
 ! A7    A(2,3,4)              120.6101         estimate D2E/DX2                !
 ! A8    A(2,3,18)             119.6716         estimate D2E/DX2                !
 ! A9    A(4,3,18)             119.7182         estimate D2E/DX2                !
 ! A10   A(3,4,5)              120.9287         estimate D2E/DX2                !
 ! A11   A(3,4,19)             119.4993         estimate D2E/DX2                !
 ! A12   A(5,4,19)             119.5719         estimate D2E/DX2                !
 ! A13   A(4,5,6)              117.4187         estimate D2E/DX2                !
 ! A14   A(4,5,7)              122.3124         estimate D2E/DX2                !
 ! A15   A(6,5,7)              120.2688         estimate D2E/DX2                !
 ! A16   A(1,6,5)              121.2209         estimate D2E/DX2                !
 ! A17   A(1,6,20)             120.0055         estimate D2E/DX2                !
 ! A18   A(5,6,20)             118.7735         estimate D2E/DX2                !
 ! A19   A(5,7,21)             118.2295         estimate D2E/DX2                !
 ! A20   A(5,7,31)             124.0862         estimate D2E/DX2                !
 ! A21   A(21,7,31)            117.6651         estimate D2E/DX2                !
 ! A22   A(9,8,15)             110.8874         estimate D2E/DX2                !
 ! A23   A(9,8,22)             107.6959         estimate D2E/DX2                !
 ! A24   A(9,8,31)             112.298          estimate D2E/DX2                !
 ! A25   A(15,8,22)            107.9275         estimate D2E/DX2                !
 ! A26   A(15,8,31)            110.4678         estimate D2E/DX2                !
 ! A27   A(22,8,31)            107.3632         estimate D2E/DX2                !
 ! A28   A(8,9,10)             121.0037         estimate D2E/DX2                !
 ! A29   A(8,9,14)             120.6089         estimate D2E/DX2                !
 ! A30   A(10,9,14)            118.3829         estimate D2E/DX2                !
 ! A31   A(9,10,11)            120.8863         estimate D2E/DX2                !
 ! A32   A(9,10,23)            119.8337         estimate D2E/DX2                !
 ! A33   A(11,10,23)           119.2795         estimate D2E/DX2                !
 ! A34   A(10,11,12)           120.2226         estimate D2E/DX2                !
 ! A35   A(10,11,24)           119.8465         estimate D2E/DX2                !
 ! A36   A(12,11,24)           119.9307         estimate D2E/DX2                !
 ! A37   A(11,12,13)           119.4373         estimate D2E/DX2                !
 ! A38   A(11,12,25)           120.2553         estimate D2E/DX2                !
 ! A39   A(13,12,25)           120.3073         estimate D2E/DX2                !
 ! A40   A(12,13,14)           120.0608         estimate D2E/DX2                !
 ! A41   A(12,13,26)           120.0649         estimate D2E/DX2                !
 ! A42   A(14,13,26)           119.8742         estimate D2E/DX2                !
 ! A43   A(9,14,13)            121.0101         estimate D2E/DX2                !
 ! A44   A(9,14,27)            119.3662         estimate D2E/DX2                !
 ! A45   A(13,14,27)           119.6237         estimate D2E/DX2                !
 ! A46   A(8,15,28)            110.7614         estimate D2E/DX2                !
 ! A47   A(8,15,29)            110.8687         estimate D2E/DX2                !
 ! A48   A(8,15,30)            110.7489         estimate D2E/DX2                !
 ! A49   A(28,15,29)           107.8396         estimate D2E/DX2                !
 ! A50   A(28,15,30)           108.0697         estimate D2E/DX2                !
 ! A51   A(29,15,30)           108.443          estimate D2E/DX2                !
 ! A52   A(7,31,8)             113.3978         estimate D2E/DX2                !
 ! A53   A(7,31,32)            110.0435         estimate D2E/DX2                !
 ! A54   A(7,31,33)            110.2142         estimate D2E/DX2                !
 ! A55   A(8,31,32)            109.2262         estimate D2E/DX2                !
 ! A56   A(8,31,33)            108.3151         estimate D2E/DX2                !
 ! A57   A(32,31,33)           105.3138         estimate D2E/DX2                !
 ! D1    D(6,1,2,3)              0.0631         estimate D2E/DX2                !
 ! D2    D(6,1,2,17)           179.9933         estimate D2E/DX2                !
 ! D3    D(16,1,2,3)          -179.8879         estimate D2E/DX2                !
 ! D4    D(16,1,2,17)            0.0424         estimate D2E/DX2                !
 ! D5    D(2,1,6,5)              0.0253         estimate D2E/DX2                !
 ! D6    D(2,1,6,20)          -179.8501         estimate D2E/DX2                !
 ! D7    D(16,1,6,5)           179.9762         estimate D2E/DX2                !
 ! D8    D(16,1,6,20)            0.1008         estimate D2E/DX2                !
 ! D9    D(1,2,3,4)             -0.0681         estimate D2E/DX2                !
 ! D10   D(1,2,3,18)           179.8981         estimate D2E/DX2                !
 ! D11   D(17,2,3,4)          -179.9983         estimate D2E/DX2                !
 ! D12   D(17,2,3,18)           -0.0322         estimate D2E/DX2                !
 ! D13   D(2,3,4,5)             -0.0153         estimate D2E/DX2                !
 ! D14   D(2,3,4,19)           179.8798         estimate D2E/DX2                !
 ! D15   D(18,3,4,5)          -179.9814         estimate D2E/DX2                !
 ! D16   D(18,3,4,19)           -0.0863         estimate D2E/DX2                !
 ! D17   D(3,4,5,6)              0.1001         estimate D2E/DX2                !
 ! D18   D(3,4,5,7)            179.994          estimate D2E/DX2                !
 ! D19   D(19,4,5,6)          -179.7949         estimate D2E/DX2                !
 ! D20   D(19,4,5,7)             0.0989         estimate D2E/DX2                !
 ! D21   D(4,5,6,1)             -0.1053         estimate D2E/DX2                !
 ! D22   D(4,5,6,20)           179.7716         estimate D2E/DX2                !
 ! D23   D(7,5,6,1)            179.9986         estimate D2E/DX2                !
 ! D24   D(7,5,6,20)            -0.1245         estimate D2E/DX2                !
 ! D25   D(4,5,7,21)          -178.715          estimate D2E/DX2                !
 ! D26   D(4,5,7,31)            -0.347          estimate D2E/DX2                !
 ! D27   D(6,5,7,21)             1.1759         estimate D2E/DX2                !
 ! D28   D(6,5,7,31)           179.5439         estimate D2E/DX2                !
 ! D29   D(5,7,31,8)           176.7892         estimate D2E/DX2                !
 ! D30   D(5,7,31,32)          -60.5412         estimate D2E/DX2                !
 ! D31   D(5,7,31,33)           55.1752         estimate D2E/DX2                !
 ! D32   D(21,7,31,8)           -4.8343         estimate D2E/DX2                !
 ! D33   D(21,7,31,32)         117.8353         estimate D2E/DX2                !
 ! D34   D(21,7,31,33)        -126.4483         estimate D2E/DX2                !
 ! D35   D(15,8,9,10)          -68.1879         estimate D2E/DX2                !
 ! D36   D(15,8,9,14)          111.0235         estimate D2E/DX2                !
 ! D37   D(22,8,9,10)          173.9344         estimate D2E/DX2                !
 ! D38   D(22,8,9,14)           -6.8542         estimate D2E/DX2                !
 ! D39   D(31,8,9,10)           55.9384         estimate D2E/DX2                !
 ! D40   D(31,8,9,14)         -124.8502         estimate D2E/DX2                !
 ! D41   D(9,8,15,28)           63.0055         estimate D2E/DX2                !
 ! D42   D(9,8,15,29)          -56.6744         estimate D2E/DX2                !
 ! D43   D(9,8,15,30)         -177.1043         estimate D2E/DX2                !
 ! D44   D(22,8,15,28)        -179.258          estimate D2E/DX2                !
 ! D45   D(22,8,15,29)          61.0621         estimate D2E/DX2                !
 ! D46   D(22,8,15,30)         -59.3678         estimate D2E/DX2                !
 ! D47   D(31,8,15,28)         -62.158          estimate D2E/DX2                !
 ! D48   D(31,8,15,29)         178.1621         estimate D2E/DX2                !
 ! D49   D(31,8,15,30)          57.7322         estimate D2E/DX2                !
 ! D50   D(9,8,31,7)            56.95           estimate D2E/DX2                !
 ! D51   D(9,8,31,32)          -66.1705         estimate D2E/DX2                !
 ! D52   D(9,8,31,33)          179.6203         estimate D2E/DX2                !
 ! D53   D(15,8,31,7)         -178.691          estimate D2E/DX2                !
 ! D54   D(15,8,31,32)          58.1885         estimate D2E/DX2                !
 ! D55   D(15,8,31,33)         -56.0207         estimate D2E/DX2                !
 ! D56   D(22,8,31,7)          -61.2429         estimate D2E/DX2                !
 ! D57   D(22,8,31,32)         175.6367         estimate D2E/DX2                !
 ! D58   D(22,8,31,33)          61.4275         estimate D2E/DX2                !
 ! D59   D(8,9,10,11)          179.2112         estimate D2E/DX2                !
 ! D60   D(8,9,10,23)           -1.0548         estimate D2E/DX2                !
 ! D61   D(14,9,10,11)          -0.0173         estimate D2E/DX2                !
 ! D62   D(14,9,10,23)         179.7166         estimate D2E/DX2                !
 ! D63   D(8,9,14,13)         -179.174          estimate D2E/DX2                !
 ! D64   D(8,9,14,27)            0.8158         estimate D2E/DX2                !
 ! D65   D(10,9,14,13)           0.0577         estimate D2E/DX2                !
 ! D66   D(10,9,14,27)        -179.9525         estimate D2E/DX2                !
 ! D67   D(9,10,11,12)          -0.0261         estimate D2E/DX2                !
 ! D68   D(9,10,11,24)         179.821          estimate D2E/DX2                !
 ! D69   D(23,10,11,12)       -179.7615         estimate D2E/DX2                !
 ! D70   D(23,10,11,24)          0.0856         estimate D2E/DX2                !
 ! D71   D(10,11,12,13)          0.0295         estimate D2E/DX2                !
 ! D72   D(10,11,12,25)        179.9262         estimate D2E/DX2                !
 ! D73   D(24,11,12,13)       -179.8174         estimate D2E/DX2                !
 ! D74   D(24,11,12,25)          0.0792         estimate D2E/DX2                !
 ! D75   D(11,12,13,14)          0.0103         estimate D2E/DX2                !
 ! D76   D(11,12,13,26)        179.909          estimate D2E/DX2                !
 ! D77   D(25,12,13,14)       -179.8863         estimate D2E/DX2                !
 ! D78   D(25,12,13,26)          0.0124         estimate D2E/DX2                !
 ! D79   D(12,13,14,9)          -0.0548         estimate D2E/DX2                !
 ! D80   D(12,13,14,27)        179.9554         estimate D2E/DX2                !
 ! D81   D(26,13,14,9)        -179.9537         estimate D2E/DX2                !
 ! D82   D(26,13,14,27)          0.0565         estimate D2E/DX2                !
 --------------------------------------------------------------------------------
 Trust Radius=3.00D-01 FncErr=1.00D-07 GrdErr=1.00D-06 EigMax=2.50D+02 EigMin=1.00D-04
 Number of steps in this run=    183 maximum allowed number of steps=    198.
 GradGradGradGradGradGradGradGradGradGradGradGradGradGradGradGradGradGrad

 Leave Link  103 at Sun Feb 23 18:42:51 2025, MaxMem= 13421772800 cpu:               0.3 elap:               0.0
 (Enter /usr/local/intel/g16/l202.exe)
                          Input orientation:                          
 ---------------------------------------------------------------------
 Center     Atomic      Atomic             Coordinates (Angstroms)
 Number     Number       Type             X           Y           Z
 ---------------------------------------------------------------------
      1          6           0        4.098164   -1.569516   -0.436641
      2          6           0        4.888577   -0.660662    0.295395
      3          6           0        4.316047    0.540449    0.755096
      4          6           0        2.977624    0.836732    0.490925
      5          6           0        2.157183   -0.068899   -0.250963
      6          6           0        2.760832   -1.282840   -0.705462
      7          6           0        0.789126    0.203393   -0.537130
      8          6           0       -1.391484    1.524842   -0.606543
      9          6           0       -2.219614    0.315419   -0.185196
     10          6           0       -2.344702   -0.041013    1.171383
     11          6           0       -3.119130   -1.142415    1.556872
     12          6           0       -3.786286   -1.911015    0.589023
     13          6           0       -3.669604   -1.566473   -0.764815
     14          6           0       -2.891000   -0.461609   -1.144785
     15          6           0       -2.057439    2.837183   -0.140628
     16          1           0        4.533220   -2.498137   -0.792267
     17          1           0        5.929252   -0.885454    0.503804
     18          1           0        4.921106    1.242252    1.320676
     19          1           0        2.554079    1.767261    0.855707
     20          1           0        2.156175   -1.988936   -1.268325
     21          1           0        0.220074   -0.542762   -1.089350
     22          1           0       -1.352373    1.536688   -1.704173
     23          1           0       -1.831915    0.540673    1.932673
     24          1           0       -3.201526   -1.403767    2.607081
     25          1           0       -4.385459   -2.765166    0.886993
     26          1           0       -4.179630   -2.154265   -1.521402
     27          1           0       -2.804852   -0.201255   -2.196620
     28          1           0       -2.108505    2.879898    0.953971
     29          1           0       -3.078592    2.914941   -0.527276
     30          1           0       -1.487634    3.706755   -0.488664
     31          6           0        0.065962    1.445907   -0.093432
     32          1           0        0.067436    1.511331    1.007472
     33          1           0        0.603604    2.343040   -0.438884
 ---------------------------------------------------------------------
                    Distance matrix (angstroms):
                    1          2          3          4          5
     1  C    0.000000
     2  C    1.409484   0.000000
     3  C    2.433036   1.407758   0.000000
     4  C    2.811764   2.435603   1.396047   0.000000
     5  C    2.460434   2.847666   2.458486   1.429576   0.000000
     6  C    1.393881   2.432307   2.806476   2.443548   1.429900
     7  C    3.755401   4.271439   3.771290   2.499508   1.423943
     8  C    6.303979   6.710372   5.949706   4.557086   3.906339
     9  C    6.597767   7.190972   6.606788   5.266896   4.394130
    10  C    6.814146   7.312431   6.699028   5.436967   4.721315
    11  C    7.499723   8.120762   7.665294   6.497975   5.679805
    12  C    7.958213   8.769427   8.466703   7.301384   6.278837
    13  C    7.774698   8.671044   8.397611   7.178991   6.038064
    14  C    7.111775   7.914263   7.520319   6.229124   5.141721
    15  C    7.576151   7.789234   6.833640   5.454587   5.120598
    16  H    1.085394   2.164625   3.416797   3.897154   3.440895
    17  H    2.169161   1.084883   2.167666   3.417338   3.932549
    18  H    3.416348   2.161791   1.085590   2.151756   3.439249
    19  H    3.897235   3.414475   2.149354   1.085514   2.180305
    20  H    2.153818   3.416951   3.893208   3.428431   2.172917
    21  H    4.064460   4.870969   4.620857   3.464730   2.163292
    22  H    6.400273   6.912024   6.258712   4.904821   4.123920
    23  H    6.725502   7.020605   6.259722   5.029707   4.588327
    24  H    7.910575   8.446648   7.982714   6.905060   6.218203
    25  H    8.669109   9.528204   9.309173   8.206432   7.167354
    26  H    8.369021   9.368243   9.198938   8.013851   6.791021
    27  H    7.254054   8.100003   7.744027   6.460445   5.331500
    28  H    7.762334   7.869463   6.840135   5.500695   5.323849
    29  H    8.463120   8.771403   7.871682   6.483320   6.032660
    30  H    7.683937   7.768214   6.727194   5.397699   5.253261
    31  C    5.046704   5.276972   4.427536   3.031558   2.587017
    32  H    5.274832   5.335542   4.365433   3.031683   2.906515
    33  H    5.245955   5.284164   4.296179   2.961331   2.875130
                    6          7          8          9         10
     6  C    0.000000
     7  C    2.474843   0.000000
     8  C    5.013441   2.550707   0.000000
     9  C    5.256420   3.031324   1.525135   0.000000
    10  C    5.579530   3.577657   2.553732   1.408189   0.000000
    11  C    6.301732   4.633628   3.844397   2.443197   1.400510
    12  C    6.703361   5.164624   4.355407   2.830351   2.431916
    13  C    6.436962   4.802555   3.843320   2.445393   2.798438
    14  C    5.728056   3.788773   2.546417   1.405469   2.416604
    15  C    6.364697   3.898332   1.543636   2.527366   3.176146
    16  H    2.150777   4.624024   7.163866   7.340668   7.563015
    17  H    3.414546   5.356307   7.786885   8.265642   8.343684
    18  H    3.892057   4.648003   6.606271   7.356395   7.379771
    19  H    3.432654   2.738747   4.214785   5.097006   5.231401
    20  H    1.086737   2.685103   5.036911   5.062682   5.477634
    21  H    2.674049   1.088813   2.665560   2.739717   3.455538
    22  H    5.085825   2.779511   1.098390   2.133283   3.426759
    23  H    5.601632   3.617118   2.758657   2.164814   1.086679
    24  H    6.821824   5.328633   4.709605   3.422946   2.156960
    25  H    7.470119   6.133254   5.440469   3.915415   3.415637
    26  H    7.042383   5.587117   4.706012   3.424390   3.883798
    27  H    5.862612   3.979237   2.739592   2.157610   3.403066
    28  H    6.617594   4.217028   2.187579   2.808309   2.938499
    29  H    7.193885   4.723540   2.187462   2.759054   3.487363
    30  H    6.556868   4.178460   2.187209   3.482678   4.187611
    31  C    3.883679   1.504551   1.547147   2.551525   3.101933
    32  H    4.242159   2.148798   2.175701   2.843107   2.873160
    33  H    4.227494   2.149921   2.162853   3.485135   4.119366
                   11         12         13         14         15
    11  C    0.000000
    12  C    1.404484   0.000000
    13  C    2.423443   1.401856   0.000000
    14  C    2.795441   2.430721   1.404039   0.000000
    15  C    4.454873   5.105555   4.730843   3.547560   0.000000
    16  H    8.118799   8.453807   8.255609   7.706540   8.504532
    17  H    9.113078   9.769888   9.706246   8.983003   8.835188
    18  H    8.389745   9.289622   9.275694   8.367236   7.306114
    19  H    6.414292   7.334921   7.243901   6.214396   4.837718
    20  H    6.043772   6.226448   5.862738   5.274653   6.505203
    21  H    4.302599   4.554116   4.035208   3.112626   4.184635
    22  H    4.575307   4.803055   3.985168   2.583308   2.152459
    23  H    2.151961   3.411119   3.885049   3.405434   3.102160
    24  H    1.085372   2.161435   3.408116   3.880797   5.181168
    25  H    2.164636   1.085066   2.162818   3.415831   6.153210
    26  H    3.409439   2.160505   1.085380   2.160438   5.596855
    27  H    3.882429   3.412667   2.159093   1.086997   3.744040
    28  H    4.190925   5.089301   5.016121   4.022778   1.096622
    29  H    4.561519   5.003679   4.526455   3.437673   1.094667
    30  H    5.510031   6.164783   5.713509   4.446930   1.096340
    31  C    4.423542   5.155045   4.845580   3.672545   2.539037
    32  H    4.183110   5.170950   5.155516   4.156567   2.755197
    33  H    5.476330   6.198767   5.800934   4.536145   2.722918
                   16         17         18         19         20
    16  H    0.000000
    17  H    2.495887   0.000000
    18  H    4.313409   2.492142   0.000000
    19  H    4.982614   4.307264   2.468734   0.000000
    20  H    2.477148   4.312102   4.978790   4.333458   0.000000
    21  H    4.744995   5.937196   5.576218   3.816678   2.423208
    22  H    7.193858   7.985236   6.970864   4.676165   4.992985
    23  H    7.561389   8.019428   6.816894   4.679884   5.705276
    24  H    8.519361   9.384217   8.639063   6.800715   6.638234
    25  H    9.079320  10.491588  10.141974   8.288610   6.931155
    26  H    8.750065  10.387533  10.121123   8.146892   6.343012
    27  H    7.816340   9.167606   8.610779   6.473785   5.354374
    28  H    8.722678   8.887410   7.227156   4.794508   6.843365
    29  H    9.344052   9.830940   8.379020   5.912427   7.211099
    30  H    8.651216   8.779725   7.100664   4.680215   6.806329
    31  C    6.000021   6.337989   5.060988   2.682324   4.188975
    32  H    6.265630   6.352885   4.871202   2.504381   4.668399
    33  H    6.245299   6.298759   4.790471   2.410776   4.675945
                   21         22         23         24         25
    21  H    0.000000
    22  H    2.678565   0.000000
    23  H    3.810133   3.801139   0.000000
    24  H    5.110017   5.536475   2.472146   0.000000
    25  H    5.482330   5.866830   4.306113   2.492751   0.000000
    26  H    4.705423   4.652948   4.970422   4.308632   2.493177
    27  H    3.239267   2.317897   4.306753   4.967789   4.310525
    28  H    4.616497   3.072731   2.550752   4.719879   6.087344
    29  H    4.811739   2.502898   3.639052   5.337654   5.997639
    30  H    4.619035   2.490973   4.000685   6.215987   7.223267
    31  C    2.229441   2.148116   2.920015   5.107826   6.205604
    32  H    2.939262   3.060967   2.325018   4.662902   6.175048
    33  H    2.982961   2.465158   3.847670   6.147803   7.262401
                   26         27         28         29         30
    26  H    0.000000
    27  H    2.481971   0.000000
    28  H    5.979952   4.461460   0.000000
    29  H    5.281801   3.545747   1.770985   0.000000
    30  H    6.531841   4.463711   1.774928   1.777529   0.000000
    31  C    5.746772   3.921494   2.807435   3.497785   2.771516
    32  H    6.153809   4.631328   2.571100   3.771348   3.078401
    33  H    6.654091   4.602243   3.095771   3.727392   2.497093
                   31         32         33
    31  C    0.000000
    32  H    1.102847   0.000000
    33  H    1.101473   1.752473   0.000000
 Stoichiometry    C16H17(2)
 Framework group  C1[X(C16H17)]
 Deg. of freedom    93
 Full point group                 C1      NOp   1
 Largest Abelian subgroup         C1      NOp   1
 Largest concise Abelian subgroup C1      NOp   1
                         Standard orientation:                         
 ---------------------------------------------------------------------
 Center     Atomic      Atomic             Coordinates (Angstroms)
 Number     Number       Type             X           Y           Z
 ---------------------------------------------------------------------
      1          6           0        4.098164   -1.569516   -0.436641
      2          6           0        4.888577   -0.660662    0.295395
      3          6           0        4.316047    0.540449    0.755096
      4          6           0        2.977624    0.836732    0.490925
      5          6           0        2.157183   -0.068899   -0.250963
      6          6           0        2.760832   -1.282840   -0.705462
      7          6           0        0.789126    0.203393   -0.537130
      8          6           0       -1.391484    1.524842   -0.606543
      9          6           0       -2.219614    0.315419   -0.185196
     10          6           0       -2.344702   -0.041013    1.171383
     11          6           0       -3.119130   -1.142415    1.556872
     12          6           0       -3.786286   -1.911015    0.589023
     13          6           0       -3.669604   -1.566473   -0.764815
     14          6           0       -2.891000   -0.461609   -1.144785
     15          6           0       -2.057439    2.837183   -0.140628
     16          1           0        4.533220   -2.498137   -0.792267
     17          1           0        5.929252   -0.885454    0.503804
     18          1           0        4.921106    1.242252    1.320676
     19          1           0        2.554079    1.767261    0.855707
     20          1           0        2.156175   -1.988936   -1.268325
     21          1           0        0.220074   -0.542762   -1.089350
     22          1           0       -1.352373    1.536688   -1.704173
     23          1           0       -1.831915    0.540673    1.932673
     24          1           0       -3.201526   -1.403767    2.607081
     25          1           0       -4.385459   -2.765166    0.886993
     26          1           0       -4.179630   -2.154265   -1.521402
     27          1           0       -2.804852   -0.201255   -2.196620
     28          1           0       -2.108505    2.879898    0.953971
     29          1           0       -3.078592    2.914941   -0.527276
     30          1           0       -1.487634    3.706755   -0.488664
     31          6           0        0.065962    1.445907   -0.093432
     32          1           0        0.067436    1.511331    1.007472
     33          1           0        0.603604    2.343040   -0.438884
 ---------------------------------------------------------------------
 Rotational constants (GHZ):           0.9868432           0.2498130           0.2223669
 Leave Link  202 at Sun Feb 23 18:42:51 2025, MaxMem= 13421772800 cpu:               0.1 elap:               0.0
 (Enter /usr/local/intel/g16/l301.exe)
 Standard basis: def2TZVP (5D, 7F)
 Ernie: Thresh=  0.10000D-02 Tol=  0.10000D-05 Strict=F.
 There are   678 symmetry adapted cartesian basis functions of A   symmetry.
 There are   598 symmetry adapted basis functions of A   symmetry.
   598 basis functions,   952 primitive gaussians,   678 cartesian basis functions
    57 alpha electrons       56 beta electrons
       nuclear repulsion energy       967.2296831932 Hartrees.
 IExCor= 4336 DFT=T Ex+Corr=M062X ExCW=0 ScaHFX=  0.540000
 ScaDFX=  1.000000  1.000000  1.000000  1.000000 ScalE2=  1.000000  1.000000
 IRadAn=      5 IRanWt=     -1 IRanGd=            0 ICorTp=0 IEmpDi=  4
 NAtoms=   33 NActive=   33 NUniq=   33 SFac= 1.00D+00 NAtFMM=   60 NAOKFM=F Big=F
 Integral buffers will be    131072 words long.
 Raffenetti 2 integral format.
 Two-electron integral symmetry is turned on.
 Leave Link  301 at Sun Feb 23 18:42:51 2025, MaxMem= 13421772800 cpu:               1.3 elap:               0.1
 (Enter /usr/local/intel/g16/l302.exe)
 NPDir=0 NMtPBC=     1 NCelOv=     1 NCel=       1 NClECP=     1 NCelD=      1
         NCelK=      1 NCelE2=     1 NClLst=     1 CellRange=     0.0.
 One-electron integrals computed using PRISM.
 One-electron integral symmetry used in STVInt
   1 Symmetry operations used in ECPInt.
 ECPInt:  NShTT=   29890 NPrTT=   89656 LenC2=   26503 LenP2D=   57922.
 LDataN:  DoStor=T MaxTD1= 6 Len=  172
 NBasis=   598 RedAO= T EigKep=  8.45D-06  NBF=   598
 NBsUse=   598 1.00D-06 EigRej= -1.00D+00 NBFU=   598
 Precomputing XC quadrature grid using
 IXCGrd= 4 IRadAn=           5 IRanWt=          -1 IRanGd=           0 AccXCQ= 0.00D+00.
 Generated NRdTot=       0 NPtTot=           0 NUsed=           0 NTot=          32
 NSgBfM=   671   671   671   671   671 MxSgAt=    33 MxSgA2=    33.
 Leave Link  302 at Sun Feb 23 18:42:52 2025, MaxMem= 13421772800 cpu:              16.7 elap:               0.6
 (Enter /usr/local/intel/g16/l303.exe)
 DipDrv:  MaxL=1.
 Leave Link  303 at Sun Feb 23 18:42:52 2025, MaxMem= 13421772800 cpu:               2.5 elap:               0.1
 (Enter /usr/local/intel/g16/l401.exe)
 ExpMin= 9.52D-02 ExpMax= 1.36D+04 ExpMxC= 4.63D+02 IAcc=3 IRadAn=         5 AccDes= 0.00D+00
 Harris functional with IExCor= 1009 and IRadAn=       5 diagonalized for initial guess.
 HarFok:  IExCor= 1009 AccDes= 0.00D+00 IRadAn=         5 IDoV= 1 UseB2=F ITyADJ=14
 ICtDFT=  3500011 ScaDFX=  1.000000  1.000000  1.000000  1.000000
 FoFCou: FMM=F IPFlag=           0 FMFlag=      100000 FMFlg1=           0
         NFxFlg=           0 DoJE=T BraDBF=F KetDBF=T FulRan=T
         wScrn=  0.000000 ICntrl=       500 IOpCl=  0 I1Cent=   200000004 NGrid=           0
         NMat0=    1 NMatS0=      1 NMatT0=    0 NMatD0=    1 NMtDS0=    0 NMtDT0=    0
 Petite list used in FoFCou.
 Harris En= -619.615970580477    
 JPrj=0 DoOrth=F DoCkMO=F.
 Initial guess <Sx>= 0.0000 <Sy>= 0.0000 <Sz>= 0.5000 <S**2>= 0.7500 S= 0.5000
 Leave Link  401 at Sun Feb 23 18:42:53 2025, MaxMem= 13421772800 cpu:              41.3 elap:               1.5
 (Enter /usr/local/intel/g16/l502.exe)
 Integral symmetry usage will be decided dynamically.
 UHF open shell SCF:
 Using DIIS extrapolation, IDIIS=  1040.
 NGot= 13421772800 LenX= 13420828268 LenY= 13420367906
 Requested convergence on RMS density matrix=1.00D-08 within 128 cycles.
 Requested convergence on MAX density matrix=1.00D-06.
 Requested convergence on             energy=1.00D-06.
 No special actions if energy rises.
 Fock matrices will be formed incrementally for  20 cycles.
 Integral accuracy reduced to 1.0D-05 until final iterations.

 Cycle   1  Pass 0  IDiag  1:
 FoFJK:  IHMeth= 1 ICntrl=       0 DoSepK=F KAlg= 0 I1Cent=           0 FoldK=F
 IRaf= 820000000 NMat=       1 IRICut=       1 DoRegI=T DoRafI=F ISym2E= 0 IDoP0=0 IntGTp=1.
 FoFCou: FMM=F IPFlag=           0 FMFlag=      100000 FMFlg1=           0
         NFxFlg=           0 DoJE=F BraDBF=F KetDBF=F FulRan=T
         wScrn=  0.000000 ICntrl=         0 IOpCl=  1 I1Cent=           0 NGrid=           0
         NMat0=    1 NMatS0=      1 NMatT0=    0 NMatD0=    1 NMtDS0=    0 NMtDT0=    0
 Symmetry not used in FoFCou.
 E= -619.400464257183    
 DIIS: error= 2.05D-02 at cycle   1 NSaved=   1.
 NSaved= 1 IEnMin= 1 EnMin= -619.400464257183     IErMin= 1 ErrMin= 2.05D-02
 ErrMax= 2.05D-02  0.00D+00 EMaxC= 1.00D-01 BMatC= 1.90D+00 BMatP= 1.90D+00
 IDIUse=3 WtCom= 7.95D-01 WtEn= 2.05D-01
 Coeff-Com:  0.100D+01
 Coeff-En:   0.100D+01
 Coeff:      0.100D+01
 Gap=     0.248 Goal=   None    Shift=    0.000
 Gap=     0.229 Goal=   None    Shift=    0.000
 GapD=    0.229 DampG=1.000 DampE=0.500 DampFc=0.5000 IDamp=-1.
 Damping current iteration by 5.00D-01
 RMSDP=2.88D-03 MaxDP=1.48D-01              OVMax= 1.57D-01

 Cycle   2  Pass 0  IDiag  1:
 RMSU=  1.43D-03    CP:  9.70D-01
 E= -619.629655319067     Delta-E=       -0.229191061885 Rises=F Damp=T
 DIIS: error= 5.37D-03 at cycle   2 NSaved=   2.
 NSaved= 2 IEnMin= 2 EnMin= -619.629655319067     IErMin= 2 ErrMin= 5.37D-03
 ErrMax= 5.37D-03  0.00D+00 EMaxC= 1.00D-01 BMatC= 1.44D-01 BMatP= 1.90D+00
 IDIUse=3 WtCom= 9.46D-01 WtEn= 5.37D-02
 Coeff-Com: -0.174D+00 0.117D+01
 Coeff-En:   0.000D+00 0.100D+01
 Coeff:     -0.164D+00 0.116D+01
 Gap=     0.286 Goal=   None    Shift=    0.000
 Gap=     0.252 Goal=   None    Shift=    0.000
 RMSDP=1.49D-03 MaxDP=1.20D-01 DE=-2.29D-01 OVMax= 8.48D-02

 Cycle   3  Pass 0  IDiag  1:
 RMSU=  1.34D-03    CP:  9.46D-01  1.45D+00
 E= -619.837033531318     Delta-E=       -0.207378212251 Rises=F Damp=F
 DIIS: error= 4.74D-03 at cycle   3 NSaved=   3.
 NSaved= 3 IEnMin= 3 EnMin= -619.837033531318     IErMin= 3 ErrMin= 4.74D-03
 ErrMax= 4.74D-03  0.00D+00 EMaxC= 1.00D-01 BMatC= 2.19D-02 BMatP= 1.44D-01
 IDIUse=3 WtCom= 9.53D-01 WtEn= 4.74D-02
 Coeff-Com: -0.973D-01 0.324D+00 0.773D+00
 Coeff-En:   0.000D+00 0.000D+00 0.100D+01
 Coeff:     -0.927D-01 0.308D+00 0.784D+00
 Gap=     0.235 Goal=   None    Shift=    0.000
 Gap=     0.239 Goal=   None    Shift=    0.000
 RMSDP=3.14D-04 MaxDP=1.53D-02 DE=-2.07D-01 OVMax= 3.21D-02

 Cycle   4  Pass 0  IDiag  1:
 RMSU=  2.82D-04    CP:  9.46D-01  1.55D+00  9.90D-01
 E= -619.841985623915     Delta-E=       -0.004952092597 Rises=F Damp=F
 DIIS: error= 1.20D-03 at cycle   4 NSaved=   4.
 NSaved= 4 IEnMin= 4 EnMin= -619.841985623915     IErMin= 4 ErrMin= 1.20D-03
 ErrMax= 1.20D-03  0.00D+00 EMaxC= 1.00D-01 BMatC= 3.45D-03 BMatP= 2.19D-02
 IDIUse=3 WtCom= 9.88D-01 WtEn= 1.20D-02
 Coeff-Com: -0.324D-01 0.822D-01 0.334D+00 0.616D+00
 Coeff-En:   0.000D+00 0.000D+00 0.000D+00 0.100D+01
 Coeff:     -0.320D-01 0.812D-01 0.330D+00 0.621D+00
 Gap=     0.232 Goal=   None    Shift=    0.000
 Gap=     0.245 Goal=   None    Shift=    0.000
 RMSDP=9.37D-05 MaxDP=8.01D-03 DE=-4.95D-03 OVMax= 2.02D-02

 Cycle   5  Pass 0  IDiag  1:
 RMSU=  9.05D-05    CP:  9.46D-01  1.56D+00  1.00D+00  9.67D-01
 E= -619.842927484720     Delta-E=       -0.000941860805 Rises=F Damp=F
 DIIS: error= 6.67D-04 at cycle   5 NSaved=   5.
 NSaved= 5 IEnMin= 5 EnMin= -619.842927484720     IErMin= 5 ErrMin= 6.67D-04
 ErrMax= 6.67D-04  0.00D+00 EMaxC= 1.00D-01 BMatC= 4.63D-04 BMatP= 3.45D-03
 IDIUse=3 WtCom= 9.93D-01 WtEn= 6.67D-03
 Coeff-Com: -0.307D-02 0.951D-03 0.507D-01 0.270D+00 0.682D+00
 Coeff-En:   0.000D+00 0.000D+00 0.000D+00 0.000D+00 0.100D+01
 Coeff:     -0.305D-02 0.944D-03 0.504D-01 0.268D+00 0.684D+00
 Gap=     0.233 Goal=   None    Shift=    0.000
 Gap=     0.246 Goal=   None    Shift=    0.000
 RMSDP=5.81D-05 MaxDP=3.66D-03 DE=-9.42D-04 OVMax= 9.53D-03

 Cycle   6  Pass 0  IDiag  1:
 RMSU=  4.05D-05    CP:  9.46D-01  1.57D+00  1.02D+00  1.08D+00  1.12D+00
 E= -619.843132084808     Delta-E=       -0.000204600087 Rises=F Damp=F
 DIIS: error= 3.22D-04 at cycle   6 NSaved=   6.
 NSaved= 6 IEnMin= 6 EnMin= -619.843132084808     IErMin= 6 ErrMin= 3.22D-04
 ErrMax= 3.22D-04  0.00D+00 EMaxC= 1.00D-01 BMatC= 6.84D-05 BMatP= 4.63D-04
 IDIUse=3 WtCom= 9.97D-01 WtEn= 3.22D-03
 Coeff-Com:  0.627D-02-0.166D-01-0.624D-01-0.877D-01 0.722D-01 0.109D+01
 Coeff-En:   0.000D+00 0.000D+00 0.000D+00 0.000D+00 0.000D+00 0.100D+01
 Coeff:      0.625D-02-0.165D-01-0.622D-01-0.874D-01 0.720D-01 0.109D+01
 Gap=     0.235 Goal=   None    Shift=    0.000
 Gap=     0.248 Goal=   None    Shift=    0.000
 RMSDP=5.93D-05 MaxDP=5.00D-03 DE=-2.05D-04 OVMax= 8.31D-03

 Cycle   7  Pass 0  IDiag  1:
 RMSU=  3.90D-05    CP:  9.47D-01  1.58D+00  1.02D+00  1.11D+00  1.42D+00
                    CP:  1.70D+00
 E= -619.843207520086     Delta-E=       -0.000075435279 Rises=F Damp=F
 DIIS: error= 2.56D-04 at cycle   7 NSaved=   7.
 NSaved= 7 IEnMin= 7 EnMin= -619.843207520086     IErMin= 7 ErrMin= 2.56D-04
 ErrMax= 2.56D-04  0.00D+00 EMaxC= 1.00D-01 BMatC= 3.46D-05 BMatP= 6.84D-05
 IDIUse=3 WtCom= 9.97D-01 WtEn= 2.56D-03
 Coeff-Com:  0.441D-02-0.918D-02-0.520D-01-0.140D+00-0.196D+00 0.624D+00
 Coeff-Com:  0.769D+00
 Coeff-En:   0.000D+00 0.000D+00 0.000D+00 0.000D+00 0.000D+00 0.000D+00
 Coeff-En:   0.100D+01
 Coeff:      0.440D-02-0.916D-02-0.519D-01-0.140D+00-0.196D+00 0.623D+00
 Coeff:      0.770D+00
 Gap=     0.236 Goal=   None    Shift=    0.000
 Gap=     0.249 Goal=   None    Shift=    0.000
 RMSDP=6.38D-05 MaxDP=3.59D-03 DE=-7.54D-05 OVMax= 5.16D-03

 Cycle   8  Pass 0  IDiag  1:
 RMSU=  2.64D-05    CP:  9.47D-01  1.59D+00  1.02D+00  1.07D+00  1.60D+00
                    CP:  2.19D+00  2.25D+00
 E= -619.843229128199     Delta-E=       -0.000021608112 Rises=F Damp=F
 DIIS: error= 5.80D-05 at cycle   8 NSaved=   8.
 NSaved= 8 IEnMin= 8 EnMin= -619.843229128199     IErMin= 8 ErrMin= 5.80D-05
 ErrMax= 5.80D-05  0.00D+00 EMaxC= 1.00D-01 BMatC= 2.46D-06 BMatP= 3.46D-05
 IDIUse=1 WtCom= 1.00D+00 WtEn= 0.00D+00
 Coeff-Com:  0.507D-05 0.416D-03-0.255D-02-0.184D-01-0.535D-01-0.276D-02
 Coeff-Com:  0.185D+00 0.892D+00
 Coeff:      0.507D-05 0.416D-03-0.255D-02-0.184D-01-0.535D-01-0.276D-02
 Coeff:      0.185D+00 0.892D+00
 Gap=     0.236 Goal=   None    Shift=    0.000
 Gap=     0.249 Goal=   None    Shift=    0.000
 RMSDP=9.18D-05 MaxDP=3.26D-03 DE=-2.16D-05 OVMax= 1.35D-03

 Cycle   9  Pass 0  IDiag  1:
 RMSU=  4.13D-05    CP:  9.47D-01  1.59D+00  1.01D+00  9.27D-01  1.61D+00
                    CP:  2.35D+00  3.00D+00  2.81D+00
 E= -619.843224869577     Delta-E=        0.000004258622 Rises=F Damp=F
 DIIS: error= 3.69D-05 at cycle   9 NSaved=   9.
 NSaved= 9 IEnMin= 8 EnMin= -619.843229128199     IErMin= 9 ErrMin= 3.69D-05
 ErrMax= 3.69D-05  0.00D+00 EMaxC= 1.00D-01 BMatC= 1.17D-06 BMatP= 2.46D-06
 IDIUse=1 WtCom= 1.00D+00 WtEn= 0.00D+00
 Coeff-Com: -0.481D-03 0.120D-02 0.441D-02 0.635D-02-0.491D-02-0.667D-01
 Coeff-Com:  0.688D-02 0.438D+00 0.615D+00
 Coeff:     -0.481D-03 0.120D-02 0.441D-02 0.635D-02-0.491D-02-0.667D-01
 Coeff:      0.688D-02 0.438D+00 0.615D+00
 Gap=     0.236 Goal=   None    Shift=    0.000
 Gap=     0.249 Goal=   None    Shift=    0.000
 RMSDP=9.24D-05 MaxDP=5.25D-03 DE= 4.26D-06 OVMax= 3.78D-04

 Cycle  10  Pass 0  IDiag  1:
 RMSU=  4.11D-05    CP:  9.46D-01  1.57D+00  1.00D+00  7.60D-01  1.51D+00
                    CP:  2.30D+00  3.00D+00  3.00D+00  2.41D+00
 E= -619.843222901993     Delta-E=        0.000001967584 Rises=F Damp=F
 DIIS: error= 3.98D-05 at cycle  10 NSaved=  10.
 NSaved=10 IEnMin= 8 EnMin= -619.843229128199     IErMin= 9 ErrMin= 3.69D-05
 ErrMax= 3.98D-05  0.00D+00 EMaxC= 1.00D-01 BMatC= 8.65D-07 BMatP= 1.17D-06
 IDIUse=1 WtCom= 1.00D+00 WtEn= 0.00D+00
 Coeff-Com: -0.347D-03 0.886D-03 0.310D-02 0.399D-02-0.547D-02-0.481D-01
 Coeff-Com:  0.112D-01 0.345D+00 0.443D+00 0.247D+00
 Coeff:     -0.347D-03 0.886D-03 0.310D-02 0.399D-02-0.547D-02-0.481D-01
 Coeff:      0.112D-01 0.345D+00 0.443D+00 0.247D+00
 Gap=     0.236 Goal=   None    Shift=    0.000
 Gap=     0.249 Goal=   None    Shift=    0.000
 RMSDP=3.37D-05 MaxDP=1.99D-03 DE= 1.97D-06 OVMax= 6.12D-05

 Cycle  11  Pass 0  IDiag  1:
 RMSU=  1.00D-05    CP:  9.45D-01  1.56D+00  9.98D-01  7.04D-01  1.50D+00
                    CP:  2.25D+00  3.00D+00  3.00D+00  2.84D+00  1.44D+00
 E= -619.843224211308     Delta-E=       -0.000001309314 Rises=F Damp=F
 DIIS: error= 4.28D-05 at cycle  11 NSaved=  11.
 NSaved=11 IEnMin= 8 EnMin= -619.843229128199     IErMin= 9 ErrMin= 3.69D-05
 ErrMax= 4.28D-05  0.00D+00 EMaxC= 1.00D-01 BMatC= 9.46D-07 BMatP= 8.65D-07
 IDIUse=1 WtCom= 1.00D+00 WtEn= 0.00D+00
 Coeff-Com: -0.329D-03 0.842D-03 0.295D-02 0.386D-02-0.505D-02-0.455D-01
 Coeff-Com:  0.967D-02 0.323D+00 0.431D+00 0.668D+00-0.389D+00
 Coeff:     -0.329D-03 0.842D-03 0.295D-02 0.386D-02-0.505D-02-0.455D-01
 Coeff:      0.967D-02 0.323D+00 0.431D+00 0.668D+00-0.389D+00
 Gap=     0.236 Goal=   None    Shift=    0.000
 Gap=     0.249 Goal=   None    Shift=    0.000
 RMSDP=1.09D-05 MaxDP=4.51D-04 DE=-1.31D-06 OVMax= 7.06D-06

 Cycle  12  Pass 0  IDiag  1:
 RMSU=  4.22D-06    CP:  9.45D-01  1.56D+00  9.99D-01  7.16D-01  1.50D+00
                    CP:  2.25D+00  3.00D+00  3.00D+00  2.78D+00  1.34D+00
                    CP:  2.98D-01
 E= -619.843222221669     Delta-E=        0.000001989639 Rises=F Damp=F
 DIIS: error= 3.99D-05 at cycle  12 NSaved=  12.
 NSaved=12 IEnMin= 8 EnMin= -619.843229128199     IErMin= 9 ErrMin= 3.69D-05
 ErrMax= 3.99D-05  0.00D+00 EMaxC= 1.00D-01 BMatC= 8.43D-07 BMatP= 8.65D-07
 IDIUse=1 WtCom= 1.00D+00 WtEn= 0.00D+00
 Coeff-Com: -0.227D-03 0.613D-03 0.186D-02 0.143D-02-0.720D-02-0.316D-01
 Coeff-Com:  0.200D-01 0.283D+00 0.262D+00-0.261D+00-0.190D+01 0.263D+01
 Coeff:     -0.227D-03 0.613D-03 0.186D-02 0.143D-02-0.720D-02-0.316D-01
 Coeff:      0.200D-01 0.283D+00 0.262D+00-0.261D+00-0.190D+01 0.263D+01
 Gap=     0.236 Goal=   None    Shift=    0.000
 Gap=     0.249 Goal=   None    Shift=    0.000
 RMSDP=5.45D-05 MaxDP=4.28D-03 DE= 1.99D-06 OVMax= 6.65D-05

 Cycle  13  Pass 0  IDiag  1:
 RMSU=  3.68D-05    CP:  9.45D-01  1.55D+00  9.96D-01  6.35D-01  1.35D+00
                    CP:  2.08D+00  3.00D+00  3.00D+00  3.00D+00  1.61D+00
                    CP: -6.20D-01  2.51D+00
 E= -619.843218111188     Delta-E=        0.000004110481 Rises=F Damp=F
 DIIS: error= 3.81D-05 at cycle  13 NSaved=  13.
 NSaved=13 IEnMin= 8 EnMin= -619.843229128199     IErMin= 9 ErrMin= 3.69D-05
 ErrMax= 3.81D-05  0.00D+00 EMaxC= 1.00D-01 BMatC= 8.30D-07 BMatP= 8.43D-07
 IDIUse=1 WtCom= 1.00D+00 WtEn= 0.00D+00
 Coeff-Com: -0.381D-03 0.971D-03 0.339D-02 0.434D-02-0.573D-02-0.520D-01
 Coeff-Com:  0.128D-01 0.367D+00 0.393D+00-0.774D+00-0.249D+01 0.206D+01
 Coeff-Com:  0.148D+01
 Coeff:     -0.381D-03 0.971D-03 0.339D-02 0.434D-02-0.573D-02-0.520D-01
 Coeff:      0.128D-01 0.367D+00 0.393D+00-0.774D+00-0.249D+01 0.206D+01
 Coeff:      0.148D+01
 Gap=     0.236 Goal=   None    Shift=    0.000
 Gap=     0.249 Goal=   None    Shift=    0.000
 RMSDP=7.42D-05 MaxDP=6.19D-03 DE= 4.11D-06 OVMax= 6.13D-05

 Problem detected with inexpensive integrals.
 Switching to full accuracy and repeating last cycle.
 Cycle  14  Pass 1  IDiag  1:
 E= -619.843130796381     Delta-E=        0.000087314806 Rises=F Damp=F
 DIIS: error= 5.22D-04 at cycle   1 NSaved=   1.
 NSaved= 1 IEnMin= 1 EnMin= -619.843130796381     IErMin= 1 ErrMin= 5.22D-04
 ErrMax= 5.22D-04  0.00D+00 EMaxC= 1.00D-01 BMatC= 2.47D-04 BMatP= 2.47D-04
 IDIUse=3 WtCom= 9.95D-01 WtEn= 5.22D-03
 Coeff-Com:  0.100D+01
 Coeff-En:   0.100D+01
 Coeff:      0.100D+01
 Gap=     0.236 Goal=   None    Shift=    0.000
 Gap=     0.249 Goal=   None    Shift=    0.000
 RMSDP=1.71D-03 MaxDP=8.39D-02 DE= 8.73D-05 OVMax= 1.18D-03

 Cycle  15  Pass 1  IDiag  1:
 RMSU=  1.62D-03    CP:  9.19D-01
 E= -619.843179700730     Delta-E=       -0.000048904349 Rises=F Damp=F
 DIIS: error= 1.37D-05 at cycle   2 NSaved=   2.
 NSaved= 2 IEnMin= 2 EnMin= -619.843179700730     IErMin= 2 ErrMin= 1.37D-05
 ErrMax= 1.37D-05  0.00D+00 EMaxC= 1.00D-01 BMatC= 1.96D-07 BMatP= 2.47D-04
 IDIUse=1 WtCom= 1.00D+00 WtEn= 0.00D+00
 Coeff-Com: -0.195D-01 0.102D+01
 Coeff:     -0.195D-01 0.102D+01
 Gap=     0.236 Goal=   None    Shift=    0.000
 Gap=     0.249 Goal=   None    Shift=    0.000
 RMSDP=4.92D-05 MaxDP=1.71D-03 DE=-4.89D-05 OVMax= 1.38D-04

 Cycle  16  Pass 1  IDiag  1:
 RMSU=  2.77D-05    CP:  9.17D-01  1.02D+00
 E= -619.843179774028     Delta-E=       -0.000000073298 Rises=F Damp=F
 DIIS: error= 6.41D-06 at cycle   3 NSaved=   3.
 NSaved= 3 IEnMin= 3 EnMin= -619.843179774028     IErMin= 3 ErrMin= 6.41D-06
 ErrMax= 6.41D-06  0.00D+00 EMaxC= 1.00D-01 BMatC= 5.58D-08 BMatP= 1.96D-07
 IDIUse=1 WtCom= 1.00D+00 WtEn= 0.00D+00
 Coeff-Com: -0.785D-02 0.393D+00 0.615D+00
 Coeff:     -0.785D-02 0.393D+00 0.615D+00
 Gap=     0.236 Goal=   None    Shift=    0.000
 Gap=     0.249 Goal=   None    Shift=    0.000
 RMSDP=9.37D-07 MaxDP=2.92D-05 DE=-7.33D-08 OVMax= 8.51D-05

 Cycle  17  Pass 1  IDiag  1:
 RMSU=  4.91D-07    CP:  9.17D-01  1.02D+00  1.02D+00
 E= -619.843179790412     Delta-E=       -0.000000016383 Rises=F Damp=F
 DIIS: error= 3.02D-06 at cycle   4 NSaved=   4.
 NSaved= 4 IEnMin= 4 EnMin= -619.843179790412     IErMin= 4 ErrMin= 3.02D-06
 ErrMax= 3.02D-06  0.00D+00 EMaxC= 1.00D-01 BMatC= 1.49D-08 BMatP= 5.58D-08
 IDIUse=1 WtCom= 1.00D+00 WtEn= 0.00D+00
 Coeff-Com:  0.907D-03-0.557D-01 0.309D+00 0.745D+00
 Coeff:      0.907D-03-0.557D-01 0.309D+00 0.745D+00
 Gap=     0.236 Goal=   None    Shift=    0.000
 Gap=     0.249 Goal=   None    Shift=    0.000
 RMSDP=7.33D-07 MaxDP=3.14D-05 DE=-1.64D-08 OVMax= 6.24D-05

 Cycle  18  Pass 1  IDiag  1:
 RMSU=  3.04D-07    CP:  9.17D-01  1.02D+00  1.04D+00  1.56D+00
 E= -619.843179798698     Delta-E=       -0.000000008286 Rises=F Damp=F
 DIIS: error= 1.71D-06 at cycle   5 NSaved=   5.
 NSaved= 5 IEnMin= 5 EnMin= -619.843179798698     IErMin= 5 ErrMin= 1.71D-06
 ErrMax= 1.71D-06  0.00D+00 EMaxC= 1.00D-01 BMatC= 1.71D-09 BMatP= 1.49D-08
 IDIUse=1 WtCom= 1.00D+00 WtEn= 0.00D+00
 Coeff-Com:  0.825D-03-0.425D-01-0.157D-01 0.889D-01 0.968D+00
 Coeff:      0.825D-03-0.425D-01-0.157D-01 0.889D-01 0.968D+00
 Gap=     0.236 Goal=   None    Shift=    0.000
 Gap=     0.249 Goal=   None    Shift=    0.000
 RMSDP=1.40D-07 MaxDP=7.79D-06 DE=-8.29D-09 OVMax= 5.58D-05

 Cycle  19  Pass 1  IDiag  1:
 RMSU=  9.93D-08    CP:  9.17D-01  1.02D+00  1.04D+00  1.70D+00  1.20D+00
 E= -619.843179801464     Delta-E=       -0.000000002766 Rises=F Damp=F
 DIIS: error= 1.15D-06 at cycle   6 NSaved=   6.
 NSaved= 6 IEnMin= 6 EnMin= -619.843179801464     IErMin= 6 ErrMin= 1.15D-06
 ErrMax= 1.15D-06  0.00D+00 EMaxC= 1.00D-01 BMatC= 8.64D-10 BMatP= 1.71D-09
 IDIUse=1 WtCom= 1.00D+00 WtEn= 0.00D+00
 Coeff-Com: -0.295D-03 0.217D-01-0.227D+00-0.502D+00 0.394D+00 0.131D+01
 Coeff:     -0.295D-03 0.217D-01-0.227D+00-0.502D+00 0.394D+00 0.131D+01
 Gap=     0.236 Goal=   None    Shift=    0.000
 Gap=     0.249 Goal=   None    Shift=    0.000
 RMSDP=1.83D-07 MaxDP=9.73D-06 DE=-2.77D-09 OVMax= 7.69D-05

 Cycle  20  Pass 1  IDiag  1:
 RMSU=  6.17D-08    CP:  9.17D-01  1.02D+00  1.04D+00  1.79D+00  1.41D+00
                    CP:  2.51D+00
 E= -619.843179803460     Delta-E=       -0.000000001995 Rises=F Damp=F
 DIIS: error= 5.89D-07 at cycle   7 NSaved=   7.
 NSaved= 7 IEnMin= 7 EnMin= -619.843179803460     IErMin= 7 ErrMin= 5.89D-07
 ErrMax= 5.89D-07  0.00D+00 EMaxC= 1.00D-01 BMatC= 1.13D-10 BMatP= 8.64D-10
 IDIUse=1 WtCom= 1.00D+00 WtEn= 0.00D+00
 Coeff-Com: -0.209D-03 0.131D-01-0.789D-01-0.190D+00 0.305D-01 0.480D+00
 Coeff-Com:  0.745D+00
 Coeff:     -0.209D-03 0.131D-01-0.789D-01-0.190D+00 0.305D-01 0.480D+00
 Coeff:      0.745D+00
 Gap=     0.236 Goal=   None    Shift=    0.000
 Gap=     0.249 Goal=   None    Shift=    0.000
 RMSDP=4.28D-08 MaxDP=3.30D-06 DE=-2.00D-09 OVMax= 1.30D-05

 Cycle  21  Pass 1  IDiag  1:
 RMSU=  2.13D-08    CP:  9.17D-01  1.02D+00  1.04D+00  1.77D+00  1.38D+00
                    CP:  2.77D+00  1.27D+00
 E= -619.843179803563     Delta-E=       -0.000000000104 Rises=F Damp=F
 DIIS: error= 3.73D-07 at cycle   8 NSaved=   8.
 NSaved= 8 IEnMin= 8 EnMin= -619.843179803563     IErMin= 8 ErrMin= 3.73D-07
 ErrMax= 3.73D-07  0.00D+00 EMaxC= 1.00D-01 BMatC= 3.52D-11 BMatP= 1.13D-10
 IDIUse=1 WtCom= 1.00D+00 WtEn= 0.00D+00
 Coeff-Com: -0.163D-05-0.850D-03 0.342D-01 0.694D-01-0.106D+00-0.189D+00
 Coeff-Com:  0.314D+00 0.877D+00
 Coeff:     -0.163D-05-0.850D-03 0.342D-01 0.694D-01-0.106D+00-0.189D+00
 Coeff:      0.314D+00 0.877D+00
 Gap=     0.236 Goal=   None    Shift=    0.000
 Gap=     0.249 Goal=   None    Shift=    0.000
 RMSDP=2.79D-08 MaxDP=3.17D-06 DE=-1.04D-10 OVMax= 5.69D-06

 Cycle  22  Pass 1  IDiag  1:
 RMSU=  1.49D-08    CP:  9.17D-01  1.02D+00  1.04D+00  1.75D+00  1.35D+00
                    CP:  2.90D+00  1.46D+00  1.46D+00
 E= -619.843179803592     Delta-E=       -0.000000000029 Rises=F Damp=F
 DIIS: error= 1.80D-07 at cycle   9 NSaved=   9.
 NSaved= 9 IEnMin= 9 EnMin= -619.843179803592     IErMin= 9 ErrMin= 1.80D-07
 ErrMax= 1.80D-07  0.00D+00 EMaxC= 1.00D-01 BMatC= 8.42D-12 BMatP= 3.52D-11
 IDIUse=1 WtCom= 1.00D+00 WtEn= 0.00D+00
 Coeff-Com:  0.514D-04-0.360D-02 0.330D-01 0.751D-01-0.493D-01-0.190D+00
 Coeff-Com: -0.721D-01 0.347D+00 0.860D+00
 Coeff:      0.514D-04-0.360D-02 0.330D-01 0.751D-01-0.493D-01-0.190D+00
 Coeff:     -0.721D-01 0.347D+00 0.860D+00
 Gap=     0.236 Goal=   None    Shift=    0.000
 Gap=     0.249 Goal=   None    Shift=    0.000
 RMSDP=1.02D-08 MaxDP=7.73D-07 DE=-2.89D-11 OVMax= 2.94D-06

 Cycle  23  Pass 1  IDiag  1:
 RMSU=  4.62D-09    CP:  9.17D-01  1.02D+00  1.04D+00  1.75D+00  1.34D+00
                    CP:  2.92D+00  1.51D+00  1.77D+00  1.27D+00
 E= -619.843179803612     Delta-E=       -0.000000000020 Rises=F Damp=F
 DIIS: error= 6.42D-08 at cycle  10 NSaved=  10.
 NSaved=10 IEnMin=10 EnMin= -619.843179803612     IErMin=10 ErrMin= 6.42D-08
 ErrMax= 6.42D-08  0.00D+00 EMaxC= 1.00D-01 BMatC= 1.78D-12 BMatP= 8.42D-12
 IDIUse=1 WtCom= 1.00D+00 WtEn= 0.00D+00
 Coeff-Com:  0.206D-04-0.119D-02 0.398D-02 0.116D-01 0.677D-02-0.258D-01
 Coeff-Com: -0.102D+00-0.797D-01 0.328D+00 0.858D+00
 Coeff:      0.206D-04-0.119D-02 0.398D-02 0.116D-01 0.677D-02-0.258D-01
 Coeff:     -0.102D+00-0.797D-01 0.328D+00 0.858D+00
 Gap=     0.236 Goal=   None    Shift=    0.000
 Gap=     0.249 Goal=   None    Shift=    0.000
 RMSDP=4.75D-09 MaxDP=1.69D-07 DE=-1.96D-11 OVMax= 1.32D-06

 SCF Done:  E(UM062X) =  -619.843179804     A.U. after   23 cycles
            NFock= 23  Conv=0.48D-08     -V/T= 2.0061
 <Sx>= 0.0000 <Sy>= 0.0000 <Sz>= 0.5000 <S**2>= 0.7761 S= 0.5129
 <L.S>=  0.00000000000    
 KE= 6.160587170405D+02 PE=-3.370285819131D+03 EE= 1.167154239093D+03
 Annihilation of the first spin contaminant:
 S**2 before annihilation     0.7761,   after     0.7504
 Leave Link  502 at Sun Feb 23 18:46:37 2025, MaxMem= 13421772800 cpu:            6045.6 elap:             224.0
 (Enter /usr/local/intel/g16/l601.exe)
 Copying SCF densities to generalized density rwf, IOpCl= 1 IROHF=0.

 **********************************************************************

            Population analysis using the SCF Density.

 **********************************************************************

 Orbital symmetries:
 Alpha Orbitals:
       Occupied  (A) (A) (A) (A) (A) (A) (A) (A) (A) (A) (A) (A)
                 (A) (A) (A) (A) (A) (A) (A) (A) (A) (A) (A) (A)
                 (A) (A) (A) (A) (A) (A) (A) (A) (A) (A) (A) (A)
                 (A) (A) (A) (A) (A) (A) (A) (A) (A) (A) (A) (A)
                 (A) (A) (A) (A) (A) (A) (A) (A) (A)
       Virtual   (A) (A) (A) (A) (A) (A) (A) (A) (A) (A) (A) (A)
                 (A) (A) (A) (A) (A) (A) (A) (A) (A) (A) (A) (A)
                 (A) (A) (A) (A) (A) (A) (A) (A) (A) (A) (A) (A)
                 (A) (A) (A) (A) (A) (A) (A) (A) (A) (A) (A) (A)
                 (A) (A) (A) (A) (A) (A) (A) (A) (A) (A) (A) (A)
                 (A) (A) (A) (A) (A) (A) (A) (A) (A) (A) (A) (A)
                 (A) (A) (A) (A) (A) (A) (A) (A) (A) (A) (A) (A)
                 (A) (A) (A) (A) (A) (A) (A) (A) (A) (A) (A) (A)
                 (A) (A) (A) (A) (A) (A) (A) (A) (A) (A) (A) (A)
                 (A) (A) (A) (A) (A) (A) (A) (A) (A) (A) (A) (A)
                 (A) (A) (A) (A) (A) (A) (A) (A) (A) (A) (A) (A)
                 (A) (A) (A) (A) (A) (A) (A) (A) (A) (A) (A) (A)
                 (A) (A) (A) (A) (A) (A) (A) (A) (A) (A) (A) (A)
                 (A) (A) (A) (A) (A) (A) (A) (A) (A) (A) (A) (A)
                 (A) (A) (A) (A) (A) (A) (A) (A) (A) (A) (A) (A)
                 (A) (A) (A) (A) (A) (A) (A) (A) (A) (A) (A) (A)
                 (A) (A) (A) (A) (A) (A) (A) (A) (A) (A) (A) (A)
                 (A) (A) (A) (A) (A) (A) (A) (A) (A) (A) (A) (A)
                 (A) (A) (A) (A) (A) (A) (A) (A) (A) (A) (A) (A)
                 (A) (A) (A) (A) (A) (A) (A) (A) (A) (A) (A) (A)
                 (A) (A) (A) (A) (A) (A) (A) (A) (A) (A) (A) (A)
                 (A) (A) (A) (A) (A) (A) (A) (A) (A) (A) (A) (A)
                 (A) (A) (A) (A) (A) (A) (A) (A) (A) (A) (A) (A)
                 (A) (A) (A) (A) (A) (A) (A) (A) (A) (A) (A) (A)
                 (A) (A) (A) (A) (A) (A) (A) (A) (A) (A) (A) (A)
                 (A) (A) (A) (A) (A) (A) (A) (A) (A) (A) (A) (A)
                 (A) (A) (A) (A) (A) (A) (A) (A) (A) (A) (A) (A)
                 (A) (A) (A) (A) (A) (A) (A) (A) (A) (A) (A) (A)
                 (A) (A) (A) (A) (A) (A) (A) (A) (A) (A) (A) (A)
                 (A) (A) (A) (A) (A) (A) (A) (A) (A) (A) (A) (A)
                 (A) (A) (A) (A) (A) (A) (A) (A) (A) (A) (A) (A)
                 (A) (A) (A) (A) (A) (A) (A) (A) (A) (A) (A) (A)
                 (A) (A) (A) (A) (A) (A) (A) (A) (A) (A) (A) (A)
                 (A) (A) (A) (A) (A) (A) (A) (A) (A) (A) (A) (A)
                 (A) (A) (A) (A) (A) (A) (A) (A) (A) (A) (A) (A)
                 (A) (A) (A) (A) (A) (A) (A) (A) (A) (A) (A) (A)
                 (A) (A) (A) (A) (A) (A) (A) (A) (A) (A) (A) (A)
                 (A) (A) (A) (A) (A) (A) (A) (A) (A) (A) (A) (A)
                 (A) (A) (A) (A) (A) (A) (A) (A) (A) (A) (A) (A)
                 (A) (A) (A) (A) (A) (A) (A) (A) (A) (A) (A) (A)
                 (A) (A) (A) (A) (A) (A) (A) (A) (A) (A) (A) (A)
                 (A) (A) (A) (A) (A) (A) (A) (A) (A) (A) (A) (A)
                 (A) (A) (A) (A) (A) (A) (A) (A) (A) (A) (A) (A)
                 (A) (A) (A) (A) (A) (A) (A) (A) (A) (A) (A) (A)
                 (A) (A) (A) (A) (A) (A) (A) (A) (A) (A) (A) (A)
                 (A)
 Beta  Orbitals:
       Occupied  (A) (A) (A) (A) (A) (A) (A) (A) (A) (A) (A) (A)
                 (A) (A) (A) (A) (A) (A) (A) (A) (A) (A) (A) (A)
                 (A) (A) (A) (A) (A) (A) (A) (A) (A) (A) (A) (A)
                 (A) (A) (A) (A) (A) (A) (A) (A) (A) (A) (A) (A)
                 (A) (A) (A) (A) (A) (A) (A) (A)
       Virtual   (A) (A) (A) (A) (A) (A) (A) (A) (A) (A) (A) (A)
                 (A) (A) (A) (A) (A) (A) (A) (A) (A) (A) (A) (A)
                 (A) (A) (A) (A) (A) (A) (A) (A) (A) (A) (A) (A)
                 (A) (A) (A) (A) (A) (A) (A) (A) (A) (A) (A) (A)
                 (A) (A) (A) (A) (A) (A) (A) (A) (A) (A) (A) (A)
                 (A) (A) (A) (A) (A) (A) (A) (A) (A) (A) (A) (A)
                 (A) (A) (A) (A) (A) (A) (A) (A) (A) (A) (A) (A)
                 (A) (A) (A) (A) (A) (A) (A) (A) (A) (A) (A) (A)
                 (A) (A) (A) (A) (A) (A) (A) (A) (A) (A) (A) (A)
                 (A) (A) (A) (A) (A) (A) (A) (A) (A) (A) (A) (A)
                 (A) (A) (A) (A) (A) (A) (A) (A) (A) (A) (A) (A)
                 (A) (A) (A) (A) (A) (A) (A) (A) (A) (A) (A) (A)
                 (A) (A) (A) (A) (A) (A) (A) (A) (A) (A) (A) (A)
                 (A) (A) (A) (A) (A) (A) (A) (A) (A) (A) (A) (A)
                 (A) (A) (A) (A) (A) (A) (A) (A) (A) (A) (A) (A)
                 (A) (A) (A) (A) (A) (A) (A) (A) (A) (A) (A) (A)
                 (A) (A) (A) (A) (A) (A) (A) (A) (A) (A) (A) (A)
                 (A) (A) (A) (A) (A) (A) (A) (A) (A) (A) (A) (A)
                 (A) (A) (A) (A) (A) (A) (A) (A) (A) (A) (A) (A)
                 (A) (A) (A) (A) (A) (A) (A) (A) (A) (A) (A) (A)
                 (A) (A) (A) (A) (A) (A) (A) (A) (A) (A) (A) (A)
                 (A) (A) (A) (A) (A) (A) (A) (A) (A) (A) (A) (A)
                 (A) (A) (A) (A) (A) (A) (A) (A) (A) (A) (A) (A)
                 (A) (A) (A) (A) (A) (A) (A) (A) (A) (A) (A) (A)
                 (A) (A) (A) (A) (A) (A) (A) (A) (A) (A) (A) (A)
                 (A) (A) (A) (A) (A) (A) (A) (A) (A) (A) (A) (A)
                 (A) (A) (A) (A) (A) (A) (A) (A) (A) (A) (A) (A)
                 (A) (A) (A) (A) (A) (A) (A) (A) (A) (A) (A) (A)
                 (A) (A) (A) (A) (A) (A) (A) (A) (A) (A) (A) (A)
                 (A) (A) (A) (A) (A) (A) (A) (A) (A) (A) (A) (A)
                 (A) (A) (A) (A) (A) (A) (A) (A) (A) (A) (A) (A)
                 (A) (A) (A) (A) (A) (A) (A) (A) (A) (A) (A) (A)
                 (A) (A) (A) (A) (A) (A) (A) (A) (A) (A) (A) (A)
                 (A) (A) (A) (A) (A) (A) (A) (A) (A) (A) (A) (A)
                 (A) (A) (A) (A) (A) (A) (A) (A) (A) (A) (A) (A)
                 (A) (A) (A) (A) (A) (A) (A) (A) (A) (A) (A) (A)
                 (A) (A) (A) (A) (A) (A) (A) (A) (A) (A) (A) (A)
                 (A) (A) (A) (A) (A) (A) (A) (A) (A) (A) (A) (A)
                 (A) (A) (A) (A) (A) (A) (A) (A) (A) (A) (A) (A)
                 (A) (A) (A) (A) (A) (A) (A) (A) (A) (A) (A) (A)
                 (A) (A) (A) (A) (A) (A) (A) (A) (A) (A) (A) (A)
                 (A) (A) (A) (A) (A) (A) (A) (A) (A) (A) (A) (A)
                 (A) (A) (A) (A) (A) (A) (A) (A) (A) (A) (A) (A)
                 (A) (A) (A) (A) (A) (A) (A) (A) (A) (A) (A) (A)
                 (A) (A) (A) (A) (A) (A) (A) (A) (A) (A) (A) (A)
                 (A) (A)
 The electronic state is 2-A.
 Alpha  occ. eigenvalues --  -10.55249 -10.55184 -10.55094 -10.55029 -10.54552
 Alpha  occ. eigenvalues --  -10.54541 -10.54461 -10.54344 -10.54342 -10.54322
 Alpha  occ. eigenvalues --  -10.54262 -10.54261 -10.54195 -10.54141 -10.54074
 Alpha  occ. eigenvalues --  -10.53057  -0.96349  -0.95547  -0.91385  -0.87230
 Alpha  occ. eigenvalues --   -0.83980  -0.83863  -0.82582  -0.80094  -0.73186
 Alpha  occ. eigenvalues --   -0.70728  -0.68781  -0.68179  -0.65173  -0.63800
 Alpha  occ. eigenvalues --   -0.58779  -0.58398  -0.54581  -0.53793  -0.53037
 Alpha  occ. eigenvalues --   -0.51361  -0.50543  -0.49721  -0.48631  -0.48371
 Alpha  occ. eigenvalues --   -0.48181  -0.47292  -0.45442  -0.44100  -0.43560
 Alpha  occ. eigenvalues --   -0.43439  -0.41901  -0.41356  -0.39854  -0.38944
 Alpha  occ. eigenvalues --   -0.38856  -0.37996  -0.33971  -0.31040  -0.30703
 Alpha  occ. eigenvalues --   -0.29804  -0.21972
 Alpha virt. eigenvalues --    0.01617   0.01987   0.02241   0.04428   0.06620
 Alpha virt. eigenvalues --    0.08371   0.08798   0.09006   0.10337   0.11038
 Alpha virt. eigenvalues --    0.11842   0.12013   0.12338   0.13219   0.13747
 Alpha virt. eigenvalues --    0.13953   0.14926   0.16199   0.16579   0.17190
 Alpha virt. eigenvalues --    0.17309   0.17773   0.18911   0.19186   0.19724
 Alpha virt. eigenvalues --    0.19944   0.21718   0.22499   0.22858   0.23512
 Alpha virt. eigenvalues --    0.23663   0.24600   0.25013   0.25269   0.25805
 Alpha virt. eigenvalues --    0.26244   0.26441   0.27310   0.27840   0.28301
 Alpha virt. eigenvalues --    0.28832   0.29018   0.29842   0.30001   0.30905
 Alpha virt. eigenvalues --    0.31327   0.32006   0.32520   0.33548   0.33975
 Alpha virt. eigenvalues --    0.34710   0.35181   0.36270   0.36331   0.36772
 Alpha virt. eigenvalues --    0.37802   0.38225   0.39171   0.39624   0.39672
 Alpha virt. eigenvalues --    0.39997   0.40703   0.40845   0.41542   0.42397
 Alpha virt. eigenvalues --    0.42595   0.43440   0.43672   0.43812   0.44436
 Alpha virt. eigenvalues --    0.44709   0.45275   0.45491   0.46068   0.46383
 Alpha virt. eigenvalues --    0.46840   0.47071   0.47666   0.48010   0.48690
 Alpha virt. eigenvalues --    0.50013   0.50455   0.50899   0.51729   0.52433
 Alpha virt. eigenvalues --    0.52563   0.52719   0.53063   0.53411   0.53932
 Alpha virt. eigenvalues --    0.54103   0.54926   0.55917   0.56124   0.57064
 Alpha virt. eigenvalues --    0.57504   0.59331   0.60259   0.61604   0.62008
 Alpha virt. eigenvalues --    0.63131   0.64868   0.65938   0.66714   0.67501
 Alpha virt. eigenvalues --    0.68580   0.69079   0.69426   0.70201   0.71838
 Alpha virt. eigenvalues --    0.72511   0.72882   0.73359   0.73779   0.75040
 Alpha virt. eigenvalues --    0.75717   0.76089   0.77751   0.78746   0.78800
 Alpha virt. eigenvalues --    0.79206   0.79781   0.80679   0.82069   0.82513
 Alpha virt. eigenvalues --    0.83156   0.84743   0.85429   0.86754   0.87663
 Alpha virt. eigenvalues --    0.88818   0.88942   0.90148   0.90488   0.90934
 Alpha virt. eigenvalues --    0.91908   0.92770   0.93546   0.93745   0.95183
 Alpha virt. eigenvalues --    0.96194   0.97304   0.98823   1.00229   1.01970
 Alpha virt. eigenvalues --    1.02306   1.02969   1.04282   1.05370   1.06035
 Alpha virt. eigenvalues --    1.06772   1.07545   1.07775   1.08968   1.09128
 Alpha virt. eigenvalues --    1.11368   1.12154   1.12772   1.14348   1.15296
 Alpha virt. eigenvalues --    1.17033   1.18525   1.18966   1.20545   1.21038
 Alpha virt. eigenvalues --    1.22306   1.22750   1.24033   1.25171   1.25615
 Alpha virt. eigenvalues --    1.26469   1.26993   1.27549   1.28062   1.28346
 Alpha virt. eigenvalues --    1.29281   1.29495   1.30147   1.30738   1.31474
 Alpha virt. eigenvalues --    1.32915   1.34078   1.35779   1.36567   1.37389
 Alpha virt. eigenvalues --    1.38452   1.41452   1.41794   1.43881   1.44479
 Alpha virt. eigenvalues --    1.44890   1.46636   1.47768   1.48224   1.49741
 Alpha virt. eigenvalues --    1.50192   1.50886   1.51439   1.52722   1.53644
 Alpha virt. eigenvalues --    1.54476   1.55345   1.55541   1.56418   1.57772
 Alpha virt. eigenvalues --    1.59026   1.60472   1.60608   1.61588   1.62180
 Alpha virt. eigenvalues --    1.62887   1.63612   1.64367   1.64775   1.66417
 Alpha virt. eigenvalues --    1.67257   1.68104   1.69148   1.69740   1.71180
 Alpha virt. eigenvalues --    1.72037   1.72822   1.73052   1.73803   1.74084
 Alpha virt. eigenvalues --    1.74325   1.74859   1.75311   1.75558   1.76582
 Alpha virt. eigenvalues --    1.76706   1.79081   1.80283   1.81897   1.84473
 Alpha virt. eigenvalues --    1.86827   1.87525   1.89461   1.89964   1.92331
 Alpha virt. eigenvalues --    1.92924   1.93423   1.95165   1.97084   1.98233
 Alpha virt. eigenvalues --    1.99099   2.00960   2.01018   2.01895   2.03672
 Alpha virt. eigenvalues --    2.05983   2.06299   2.07259   2.08668   2.09023
 Alpha virt. eigenvalues --    2.09684   2.10572   2.12378   2.12964   2.13835
 Alpha virt. eigenvalues --    2.14807   2.15789   2.17552   2.18475   2.19327
 Alpha virt. eigenvalues --    2.20142   2.20728   2.22429   2.23501   2.24369
 Alpha virt. eigenvalues --    2.25904   2.27244   2.27763   2.28644   2.29369
 Alpha virt. eigenvalues --    2.30654   2.32801   2.34403   2.36048   2.38233
 Alpha virt. eigenvalues --    2.38510   2.39774   2.41019   2.42405   2.45311
 Alpha virt. eigenvalues --    2.46053   2.47108   2.48492   2.50844   2.52089
 Alpha virt. eigenvalues --    2.52336   2.52977   2.54550   2.56159   2.56188
 Alpha virt. eigenvalues --    2.56899   2.57345   2.58306   2.59139   2.60085
 Alpha virt. eigenvalues --    2.61012   2.61934   2.62135   2.63011   2.63951
 Alpha virt. eigenvalues --    2.64353   2.64982   2.66188   2.66927   2.67656
 Alpha virt. eigenvalues --    2.68015   2.68906   2.68961   2.69410   2.70400
 Alpha virt. eigenvalues --    2.71098   2.71298   2.71838   2.72805   2.73581
 Alpha virt. eigenvalues --    2.74396   2.75259   2.75932   2.76536   2.77482
 Alpha virt. eigenvalues --    2.78097   2.78511   2.78985   2.79544   2.80215
 Alpha virt. eigenvalues --    2.80355   2.81483   2.82142   2.83299   2.83810
 Alpha virt. eigenvalues --    2.84669   2.85184   2.85317   2.86212   2.86786
 Alpha virt. eigenvalues --    2.87483   2.88497   2.89638   2.91497   2.91883
 Alpha virt. eigenvalues --    2.93542   2.93919   2.94961   2.95884   2.97163
 Alpha virt. eigenvalues --    2.98287   2.98763   3.00919   3.03304   3.03467
 Alpha virt. eigenvalues --    3.05512   3.05814   3.07027   3.08928   3.09849
 Alpha virt. eigenvalues --    3.10698   3.11864   3.12241   3.13172   3.13431
 Alpha virt. eigenvalues --    3.14007   3.14536   3.14922   3.15705   3.15873
 Alpha virt. eigenvalues --    3.16172   3.17125   3.17727   3.18542   3.18668
 Alpha virt. eigenvalues --    3.19009   3.20072   3.20604   3.21698   3.23088
 Alpha virt. eigenvalues --    3.23701   3.23921   3.25587   3.26382   3.26700
 Alpha virt. eigenvalues --    3.28272   3.28742   3.29427   3.30365   3.30628
 Alpha virt. eigenvalues --    3.31528   3.32547   3.32615   3.34242   3.35403
 Alpha virt. eigenvalues --    3.36632   3.37512   3.37792   3.38036   3.39231
 Alpha virt. eigenvalues --    3.40031   3.40313   3.40729   3.41279   3.42314
 Alpha virt. eigenvalues --    3.43879   3.44727   3.45563   3.46249   3.46547
 Alpha virt. eigenvalues --    3.47301   3.48281   3.48990   3.49888   3.50192
 Alpha virt. eigenvalues --    3.50908   3.51542   3.52178   3.52598   3.54328
 Alpha virt. eigenvalues --    3.55362   3.56596   3.58149   3.58355   3.60586
 Alpha virt. eigenvalues --    3.61525   3.61696   3.62838   3.65738   3.66716
 Alpha virt. eigenvalues --    3.67072   3.68503   3.69643   3.70105   3.71982
 Alpha virt. eigenvalues --    3.72720   3.74061   3.75911   3.77748   3.77994
 Alpha virt. eigenvalues --    3.83358   3.86247   3.87092   3.88184   3.89604
 Alpha virt. eigenvalues --    3.91158   3.91458   3.92682   3.93473   3.93906
 Alpha virt. eigenvalues --    3.96861   3.98867   3.99616   4.00773   4.01586
 Alpha virt. eigenvalues --    4.02515   4.03884   4.05066   4.07235   4.09437
 Alpha virt. eigenvalues --    4.11060   4.12794   4.13058   4.13586   4.14659
 Alpha virt. eigenvalues --    4.15646   4.16197   4.16547   4.16858   4.18169
 Alpha virt. eigenvalues --    4.19272   4.19415   4.20788   4.22615   4.23349
 Alpha virt. eigenvalues --    4.24619   4.25605   4.27621   4.28435   4.29692
 Alpha virt. eigenvalues --    4.31803   4.32115   4.34973   4.36229   4.38702
 Alpha virt. eigenvalues --    4.41773   4.49003   4.49289   4.50941   4.51280
 Alpha virt. eigenvalues --    4.56496   4.57379   4.58249   4.60199   4.61702
 Alpha virt. eigenvalues --    4.63918   4.64652   4.66388   4.68747   4.69241
 Alpha virt. eigenvalues --    4.70492   4.72877   4.80777   4.81252   4.82270
 Alpha virt. eigenvalues --    4.83592   4.85244   4.89741   4.94161   5.00578
 Alpha virt. eigenvalues --    5.02936   5.05512   5.07392   5.13047   5.14516
 Alpha virt. eigenvalues --    5.15685   5.21269   5.30667   5.32821   5.34374
 Alpha virt. eigenvalues --    5.38396   5.39619   5.40920   5.59502   5.63107
 Alpha virt. eigenvalues --   22.14526  22.25850  22.48862  22.61754  22.62396
 Alpha virt. eigenvalues --   22.65013  22.66214  22.67872  22.76783  22.77336
 Alpha virt. eigenvalues --   22.83131  22.84259  22.86833  22.90346  23.26085
 Alpha virt. eigenvalues --   23.26975
  Beta  occ. eigenvalues --  -10.55247 -10.55194 -10.55184 -10.54574 -10.54552
  Beta  occ. eigenvalues --  -10.54541 -10.54506 -10.54343 -10.54341 -10.54321
  Beta  occ. eigenvalues --  -10.54283 -10.54198 -10.54108 -10.54097 -10.53996
  Beta  occ. eigenvalues --  -10.53058  -0.96248  -0.95229  -0.91067  -0.86496
  Beta  occ. eigenvalues --   -0.83974  -0.83641  -0.82518  -0.79649  -0.72338
  Beta  occ. eigenvalues --   -0.70499  -0.68751  -0.68015  -0.64914  -0.63275
  Beta  occ. eigenvalues --   -0.58695  -0.57936  -0.54383  -0.53411  -0.52856
  Beta  occ. eigenvalues --   -0.51175  -0.50290  -0.49502  -0.48568  -0.48242
  Beta  occ. eigenvalues --   -0.48050  -0.46441  -0.45177  -0.43714  -0.43331
  Beta  occ. eigenvalues --   -0.42816  -0.41688  -0.41258  -0.39657  -0.38813
  Beta  occ. eigenvalues --   -0.38704  -0.37899  -0.31285  -0.30694  -0.30177
  Beta  occ. eigenvalues --   -0.29772
  Beta virt. eigenvalues --   -0.04870   0.01647   0.02079   0.02730   0.06152
  Beta virt. eigenvalues --    0.06951   0.08153   0.08816   0.08925   0.10288
  Beta virt. eigenvalues --    0.10866   0.11694   0.11987   0.12346   0.13152
  Beta virt. eigenvalues --    0.13702   0.13949   0.14940   0.16085   0.16541
  Beta virt. eigenvalues --    0.17108   0.17235   0.17706   0.18925   0.19190
[...]
 .00000909,-0.00000613,0.04735058,-0.00000743,0.00000255,0.00000191,0.0
 0000983,-0.00000166,0.00000199,-0.00000004,0.00000401,-0.00000140,0.00
 003331,0.00000798,0.00000777,-0.00002419,0.00007822,0.00006579,-0.0000
 0557,-0.00000554,-0.00002124,-0.00015529,-0.00023245,0.00019713,0.0017
 2066,-0.00262618,-0.03020407,0.00022538,0.00222432,-0.00046981,-0.0000
 9866,0.00002114,-0.00053259,-0.00039487,-0.00038778,0.00023890,0.00014
 262,0.00015926,0.00051512,0.00029526,0.00040882,-0.00029188,-0.0006540
 7,-0.00051819,-0.00018444,-0.00038949,-0.04586614,-0.00601472,-0.00000
 019,-0.00000179,-0.00000009,0.00000095,-0.00000035,-0.00000024,-0.0000
 0025,0.00000053,0.00000094,-0.00000075,0.00000026,0.00000134,-0.000001
 11,0.00000288,-0.00000350,0.00002788,0.00011732,0.00000479,0.00276110,
 -0.00480309,-0.00153173,0.00035916,-0.00085413,0.00063023,0.00000863,-
 0.00003112,-0.00001211,0.00004419,0.00000325,0.00004466,0.00001583,-0.
 00000205,-0.00000193,0.00008008,0.00003927,0.00015564,-0.00271101,0.05
 079734,0.00000044,0.00000123,0.00000263,0.00001093,-0.00000489,0.00000
 246,-0.00000764,0.00000293,0.00000315,0.00002705,-0.00002577,0.0000123
 8,-0.00000230,-0.00000610,-0.00000827,0.00001437,0.00000919,-0.0000087
 5,0.00004324,-0.00000290,0.00041450,0.00051515,-0.00133986,-0.01132165
 ,0.00080998,0.00093485,0.00036995,-0.00035389,0.00037489,-0.00017571,-
 0.00035409,-0.00022086,0.00020371,0.00009566,-0.00001771,0.00035632,0.
 00016458,0.00031280,-0.00015286,-0.00033438,-0.00041997,-0.00014185,0.
 00991607,-0.00749740,-0.31273751,0.00000249,-0.00000117,0.00000013,0.0
 0000192,0.00000073,-0.00000083,0.00000786,0.00000158,-0.00000027,0.000
 00341,-0.00000729,-0.00001655,-0.00000167,0.00000595,-0.00000189,-0.00
 009653,0.00010029,-0.00003753,0.00087764,-0.00184840,0.00104220,0.0001
 1298,0.00034276,0.00020749,-0.00004793,-0.00001443,0.00001562,0.000035
 60,-0.00000198,0.00002608,-0.00000013,-0.00002177,-0.00000271,0.000041
 57,0.00003182,0.00010971,-0.01239103,0.00954600,0.34047375,0.00000873,
 0.00002927,0.00001944,-0.00006061,0.00000435,-0.00001553,0.00001204,0.
 00003055,0.00001796,-0.00000630,-0.00002827,-0.00002776,0.00006481,0.0
 0034353,0.00021522,-0.00015483,-0.00003085,-0.00004168,-0.00057564,-0.
 00041090,-0.00074151,-0.01193807,-0.00002654,-0.00469763,0.00049060,-0
 .00101468,0.00053251,0.00027795,0.00030167,-0.00034708,-0.00021217,-0.
 00007369,-0.00003780,0.00003287,0.00004164,0.00012742,0.00002684,0.000
 16200,0.00002138,0.00025145,0.00025321,-0.00008518,-0.28318844,0.01639
 697,-0.09125051,-0.00001966,0.00001407,-0.00000096,-0.00000959,0.00000
 380,-0.00000042,-0.00001101,-0.00000637,-0.00000707,0.00002796,0.00001
 202,0.00002252,0.00001029,0.00000242,0.00000375,-0.00003500,0.00010340
 ,0.00004572,0.00018702,-0.00020964,0.00037673,0.00004416,-0.00002703,0
 .00005763,0.00000002,0.00001032,-0.00000365,0.00001667,-0.00000840,0.0
 0000559,0.00001463,0.00001914,-0.00000863,-0.00002373,0.00007091,0.000
 00497,0.00237973,-0.00050770,0.00100658,0.30617674,-0.00000272,-0.0000
 4831,-0.00002471,0.00004514,-0.00000385,0.00001327,-0.00000255,-0.0000
 0705,-0.00000625,0.00000769,-0.00002411,-0.00001744,0.00004161,-0.0005
 1017,-0.00029974,0.00018604,0.00002441,0.00009071,0.00184392,0.0006214
 1,0.00077929,0.02632177,-0.00286099,0.01184067,0.00122359,0.00145086,0
 .00029253,-0.00029016,0.00007171,0.00029578,0.00005732,0.00004424,0.00
 007681,0.00002951,0.00000160,-0.00014804,-0.00014601,-0.00019577,0.000
 04802,-0.00022439,0.00027293,-0.00015740,0.01443835,-0.04762440,0.0062
 4185,0.00002482,-0.00000992,0.00000020,0.00000590,-0.00000094,0.000000
 97,0.00001588,0.00000275,0.00000671,-0.00002287,-0.00001078,-0.0000083
 4,-0.00000856,-0.00000222,-0.00000901,-0.00003976,-0.00000015,-0.00003
 370,-0.00068264,0.00112825,-0.00005436,0.00004227,0.00000231,-0.000077
 66,0.00000281,-0.00000756,-0.00000686,-0.00000121,0.00000616,-0.000012
 70,0.00001143,-0.00000107,0.00000802,0.00007157,-0.00004560,-0.0000809
 7,-0.00089794,-0.00109025,0.00001523,-0.02007853,0.05154981,0.00000341
 ,-0.00001236,-0.00000428,0.00000211,0.00000067,-0.00000087,0.00000197,
 0.00000439,0.00000809,-0.00000600,-0.00003489,-0.00000324,0.00006335,-
 0.00012351,-0.00007930,0.00004746,0.00002582,-0.00001082,0.00054045,-0
 .00014313,0.00060937,0.01084806,-0.00047168,0.00322715,-0.00008013,0.0
 0020918,0.00021431,-0.00009039,-0.00016477,-0.00038971,0.00022712,0.00
 015175,0.00009832,0.00002706,0.00001782,-0.00016341,-0.00006730,-0.000
 10545,0.00006175,0.00014262,0.00032636,0.00015549,-0.09166081,0.007048
 06,-0.08232627,0.00000399,-0.00000288,0.00000437,-0.00000002,0.0000011
 8,-0.00000008,0.00000505,-0.00000046,0.00000046,0.00000115,0.00000464,
 -0.00000708,-0.00000228,-0.00000156,0.00000078,-0.00003043,0.00002792,
 0.00001889,0.00008566,0.00071184,0.00039559,-0.00008416,0.00000054,0.0
 0012364,-0.00002434,0.00001135,-0.00000674,-0.00000527,0.00001804,-0.0
 0000129,-0.00000302,-0.00000092,0.00000578,0.00000446,0.00000125,-0.00
 009926,-0.03065992,0.00192790,-0.01056939,0.09894567,-0.00558564,0.085
 14407,0.00000667,-0.00000557,-0.00000058,0.00001828,-0.00000560,0.0000
 0116,-0.00000850,-0.00001270,-0.00001236,0.00000439,0.00001291,0.00002
 270,0.00000962,-0.00006141,-0.00005348,0.00002926,0.00001013,0.0000155
 7,0.00011622,0.00000455,0.00003111,0.00656626,0.01212205,-0.00575100,-
 0.00100056,0.00169290,0.00104253,0.00037781,0.00021796,-0.00029369,-0.
 00004280,-0.00017745,-0.00006458,0.00005900,0.00010394,0.00011259,0.00
 020294,0.00003013,-0.00000258,0.00039418,0.00027039,-0.00004446,-0.123
 44323,-0.11226812,0.04628310,0.00000558,-0.00000515,0.00000020,0.00000
 423,-0.00000281,0.00000029,0.00000359,0.00000202,0.00000345,-0.0000097
 9,-0.00001075,-0.00001843,-0.00000376,0.00000019,-0.00000094,0.0000341
 0,-0.00002060,-0.00000612,0.00043947,-0.00078235,-0.00022604,-0.000081
 18,-0.00001520,-0.00003476,-0.00001601,0.00001997,-0.00000658,-0.00001
 365,0.00000157,0.00000134,0.00002564,0.00002070,-0.00000884,-0.0000894
 4,0.00004781,0.00002891,-0.00108774,0.00040015,-0.00019766,-0.01424957
 ,-0.02309907,0.01106974,0.13099201,0.00000324,0.00001192,0.00000300,-0
 .00002027,0.00000503,-0.00000551,0.00001574,0.00002711,0.00001244,0.00
 002726,-0.00003809,-0.00004653,0.00004482,0.00009860,0.00007017,-0.000
 04759,-0.00001515,-0.00000876,0.00017000,0.00017321,-0.00039257,-0.014
 97183,-0.02224534,0.00984226,0.00358580,-0.00337722,-0.00280885,-0.000
 22515,-0.00025073,-0.00030480,-0.00005700,0.00024516,-0.00001977,-0.00
 015138,-0.00027365,-0.00010113,-0.00045033,0.00005703,0.00004911,-0.00
 014862,-0.00056492,0.00071954,-0.11102557,-0.20996250,0.06864941,-0.00
 000625,0.00000442,0.00000195,-0.00000345,0.00000173,0.00000350,0.00000
 243,-0.00000506,0.00000351,0.00000893,-0.00000470,0.00002985,-0.000003
 25,0.00000415,0.00001243,-0.00011223,0.00011670,0.00009490,-0.00034929
 ,0.00093369,-0.00031593,0.00009171,0.00004085,0.00011119,-0.00002541,-
 0.00004252,0.00004792,0.00002299,-0.00002809,0.00000456,-0.00008743,-0
 .00007905,0.00000947,0.00012024,-0.00009965,-0.00009489,0.00151739,0.0
 0123053,-0.00044746,0.00161444,0.00240907,-0.00163488,0.12088810,0.230
 48681,0.00000845,-0.00000232,0.,-0.00000364,-0.00000426,-0.00000369,-0
 .00000110,-0.00000943,-0.00000471,-0.00001262,0.00002827,0.00002186,0.
 00003477,0.00001083,0.00000510,-0.00001256,0.00000016,-0.00000173,-0.0
 0023185,-0.00003453,-0.00011952,-0.00564135,-0.00995916,0.00279021,0.0
 0181418,-0.00110888,-0.00002042,-0.00016192,0.00012618,-0.00001502,-0.
 00045909,-0.00006714,0.00008699,0.00003493,-0.00003510,0.00033630,0.00
 006429,0.00036311,-0.00018117,-0.00045542,-0.00035247,0.00000992,0.045
 85514,0.06933822,-0.07601254,0.00000010,-0.00000147,-0.00000062,0.0000
 0149,-0.00000211,-0.00000061,-0.00000600,0.00000195,-0.00000135,-0.000
 00656,0.00000543,-0.00000787,-0.00000078,-0.00000398,-0.00000052,0.000
 02648,-0.00006433,-0.00000303,-0.00064843,0.00033988,0.00037727,0.0003
 4211,-0.00025294,0.00023752,-0.00002363,-0.00001393,0.00000867,0.00005
 552,-0.00001395,0.00001305,0.00001436,-0.00003798,-0.00000504,0.000037
 92,-0.00004236,-0.00000787,0.01749255,0.02551140,-0.00906517,-0.005915
 56,-0.01046470,0.00358966,-0.05184373,-0.07386043,0.07781484,-0.000859
 83,0.00151956,0.00054839,0.00067473,-0.00005106,0.00018275,-0.00040994
 ,0.00072998,0.00036785,0.00035852,0.00069799,0.00138131,-0.01491301,0.
 02608259,0.00970028,-0.00252663,-0.00172616,-0.00320876,-0.11568333,0.
 06050922,0.01422727,-0.16597865,0.00565371,-0.03745251,-0.02499190,-0.
 00894905,-0.00370941,0.00069444,0.00078939,-0.00085603,0.00001984,-0.0
 0029255,-0.00074829,0.00007694,0.00007424,-0.00000161,0.00032340,-0.00
 045459,-0.00007174,-0.00068123,0.00102934,0.00156097,-0.02057541,0.007
 50160,-0.00571693,-0.00042457,0.00001238,-0.00002925,-0.00005342,0.000
 05120,-0.00000264,0.00002488,0.00001532,-0.00003291,-0.00131517,0.0009
 9814,-0.00023167,0.00008776,0.00031440,0.00025487,0.00888166,-0.009968
 67,-0.00542151,-0.00302069,0.00006062,-0.00163493,-0.00031418,-0.00034
 755,-0.00006493,-0.00002889,0.00016412,-0.00003173,0.00000106,0.000006
 63,-0.00001758,0.00006994,-0.00006424,0.00001670,-0.00014729,0.0000243
 3,-0.00013854,0.00110463,-0.00159646,-0.00065988,-0.00009624,0.0011420
 5,0.00064095,0.00105357,-0.00159455,-0.00028939,0.48936123,0.00065724,
 0.00021244,0.00031071,-0.00090544,0.00074281,0.00009586,0.00150374,-0.
 00155393,-0.00025385,-0.00430464,-0.00091930,-0.00034935,0.01176523,-0
 .00228840,0.00169767,-0.00222363,0.00370365,-0.00109443,0.05128297,-0.
 17794459,-0.05340920,-0.00041956,-0.07522221,0.00213676,-0.02632474,0.
 00019838,-0.01093917,-0.00114140,-0.00060449,0.00059991,0.00075423,0.0
 0030800,-0.00035046,-0.00043718,-0.00034721,-0.00063972,0.00037271,-0.
 00172208,-0.00001919,-0.00082733,-0.00227309,0.00182294,0.03169371,-0.
 00461104,0.01074822,-0.00015974,-0.00000123,0.00012299,0.00004208,-0.0
 0000511,-0.00001618,-0.00004443,0.00000460,-0.00006979,-0.00001940,0.0
 0020953,-0.00042351,-0.00015058,0.00009980,0.00009126,0.01046313,-0.01
 168488,-0.00598381,0.00072017,-0.00023150,0.00029893,-0.00026659,-0.00
 011586,-0.00000264,-0.00004887,0.00004641,0.00006067,-0.00008241,0.000
 03519,0.00000767,-0.00012063,-0.00026823,0.00004427,-0.00053892,0.0003
 6600,0.00000593,-0.00060340,0.00115014,0.00048961,0.00304893,-0.005217
 23,-0.00186157,0.00058344,0.00089039,0.00025554,0.02063951,0.52701599,
 0.00011582,0.00062503,0.00041290,-0.00028133,0.00035556,0.00017137,0.0
 0079831,-0.00045134,-0.00026961,-0.00169514,0.00115191,-0.00264573,0.0
 0140862,0.00603475,0.00566851,-0.00354457,-0.00094137,0.00300162,0.008
 29303,-0.04863717,-0.07864317,-0.03655878,0.00363654,-0.09413113,0.007
 33744,-0.00492915,0.00506175,0.00104129,0.00186162,-0.00027052,-0.0005
 2898,-0.00052062,-0.00019269,0.00042269,0.00032033,0.00028174,-0.00007
 456,0.00036025,0.00009767,0.00031751,0.00060455,-0.00080729,0.01040636
 ,-0.00075454,0.00396042,-0.00011233,0.00018625,-0.00027813,-0.00001631
 ,-0.00000477,0.00004542,-0.00004913,-0.00005378,0.00006532,-0.00079923
 ,0.00010414,0.00064157,-0.00000671,0.00022275,-0.00001333,0.00696837,-
 0.01231043,0.00104399,-0.03348025,0.00182328,-0.01181775,0.00054981,0.
 00013625,-0.00039277,-0.00000667,0.00008118,-0.00003988,-0.00006970,-0
 .00002390,0.00000619,0.00005834,0.00014458,-0.00003023,0.00000840,0.00
 011277,0.00035911,0.00122505,-0.00032855,0.00073275,0.00177726,-0.0024
 7580,-0.00027051,-0.00015496,0.00039892,-0.00003177,-0.00747509,-0.002
 58562,0.52477917,0.00028198,-0.00006418,0.00012407,-0.00011948,-0.0004
 0615,-0.00024931,-0.00046226,0.00034015,-0.00013148,0.00056957,0.00025
 628,0.00041546,0.00034823,0.00063477,-0.00034734,-0.00009882,0.0001826
 9,-0.00052415,0.00016295,0.00140926,0.01350045,-0.00240726,0.00027849,
 -0.03264737,0.00214492,0.00080866,0.00004252,-0.00042282,-0.00019024,-
 0.00040376,-0.00009963,-0.00026524,0.00026223,0.00010656,0.00007615,0.
 00034236,0.00020967,0.00029409,-0.00014145,-0.00017629,-0.00069829,-0.
 00022774,0.00189104,-0.00114619,-0.00074555,-0.00000660,-0.00001021,0.
 00004275,0.00000815,-0.00005263,-0.00000106,-0.00003683,-0.00000152,-0
 .00000588,-0.00107666,-0.00051441,0.00023229,0.00001923,-0.00005190,-0
 .00000304,-0.00073939,0.00033243,0.00060257,-0.00583623,0.00030517,-0.
 00211764,-0.00127975,-0.00053911,0.00081440,-0.00003572,-0.00001012,-0
 .00000147,-0.00001418,0.00002944,0.00004860,-0.00001676,0.00001236,-0.
 00000319,0.00002236,0.00011937,0.00019888,-0.00011520,0.00030911,0.000
 73418,0.00013075,-0.00021226,0.00028650,-0.00004167,0.00011912,0.00010
 174,-0.04475089,0.00126753,0.00605870,0.05252339,-0.00045088,0.0000588
 3,-0.00015171,0.00036634,0.00024438,0.00023614,0.00015151,-0.00029717,
 -0.00001321,0.00022748,0.00071036,0.00034468,-0.00175166,0.00056700,-0
 .00005398,0.00036625,-0.00094397,0.00047503,0.00206525,-0.00671054,-0.
 02781826,-0.00012265,-0.00079514,0.00128539,0.00024736,0.00007220,-0.0
 0072347,-0.00016494,-0.00023537,-0.00021900,-0.00003048,-0.00016717,0.
 00005815,0.00000728,0.00004662,0.00012022,0.00008049,0.00013872,-0.000
 03405,-0.00012246,-0.00011373,-0.00000896,0.00000260,0.00031303,0.0010
 1559,0.00001112,0.00000322,-0.00006010,0.00000846,0.00000852,-0.000003
 12,0.00001248,0.00001426,0.00001530,0.00015449,0.00005031,0.00000262,-
 0.00001275,0.00008486,-0.00001644,0.00138806,-0.00232738,-0.00058033,0
 .00058168,0.00039253,-0.00016994,-0.00079451,0.00005652,0.00039971,-0.
 00000722,0.00001140,-0.00000800,0.00001340,0.00002289,0.00001604,0.000
 01856,0.00000428,0.00000867,0.00000351,-0.00003796,0.00006555,0.000317
 04,0.00018455,-0.00014259,-0.00010439,-0.00012590,-0.00012040,-0.00011
 067,-0.00007180,0.00013045,0.00065944,-0.04056306,-0.01126532,-0.00208
 846,0.04929229,-0.00049622,0.00004546,-0.00008035,0.00039838,-0.000044
 99,0.00008840,-0.00034446,0.00041821,0.00020836,0.00075989,-0.00016280
 ,0.00001974,-0.00303110,0.00000447,0.00009309,0.00090553,-0.00081052,-
 0.00014879,0.00387249,-0.00747258,-0.00761987,-0.00147483,-0.00035340,
 -0.01306542,0.00066021,0.00107044,0.00003481,0.00063660,-0.00010753,-0
 .00053439,0.00003603,-0.00027385,0.00040307,0.00001930,0.00013465,0.00
 022264,0.00017204,0.00018444,-0.00008513,-0.00024130,-0.00033906,-0.00
 016146,0.00074678,-0.00029325,0.00065994,0.00001626,-0.00001260,-0.000
 01046,-0.00001822,0.00004798,-0.00000279,0.00002628,0.00000427,0.00000
 691,0.00013760,0.00041756,0.00008270,0.00000145,0.00009868,-0.00000222
 ,0.00115839,0.00010138,-0.00122251,-0.00219813,-0.00005455,0.00052107,
 0.00068784,0.00050448,0.00042627,0.00001787,-0.00005286,-0.00000277,-0
 .00000187,0.00005145,0.00004072,-0.00000985,-0.00000673,0.00000434,0.0
 0001435,0.00002696,0.00013608,-0.00043662,0.00059967,0.00037223,0.0000
 0160,-0.00004569,0.00041766,-0.00011455,-0.00003619,-0.00004787,0.0004
 3428,-0.00507330,-0.29013876,-0.00272663,0.01059017,0.32170750,0.00019
 632,0.00001817,-0.00001359,-0.00004909,-0.00041976,-0.00027031,-0.0006
 3234,0.00050560,0.00020985,0.00059513,-0.00002382,0.00004650,-0.000623
 78,0.00012818,-0.00006991,-0.00007370,-0.00049960,0.00033671,0.0094116
 5,0.01114334,-0.00488831,-0.01749429,-0.02393489,0.01074371,-0.0048053
 1,0.00168811,-0.00334468,-0.00005299,-0.00034928,-0.00030941,0.0002039
 5,0.00012634,-0.00000690,-0.00021354,-0.00018122,-0.00016683,0.0001037
 8,-0.00050618,-0.00006837,-0.00044639,-0.00060192,0.00086772,0.0009989
 4,-0.00162379,0.00055940,0.00002204,0.00002626,-0.00002057,-0.00000272
 ,-0.00000981,-0.00001664,-0.00002018,-0.00000406,-0.00000889,-0.000839
 51,0.00047361,-0.00075906,0.00002442,-0.00002168,-0.00000323,-0.000700
 25,0.00088235,0.00077789,0.00136000,-0.00002243,-0.00023460,0.00010810
 ,0.00009288,0.00005835,-0.00003092,-0.00003535,0.00004728,-0.00002267,
 -0.00000186,0.00000696,-0.00005514,-0.00013348,0.00001678,-0.00012838,
 0.00009388,-0.00007895,-0.00007706,0.00011292,0.00002544,0.00042760,0.
 00019700,-0.00023272,-0.00025492,0.00104739,-0.00017042,-0.10596134,-0
 .09617573,0.03806676,-0.00068236,-0.00092175,0.00039060,0.11971495,-0.
 00065332,0.00010436,-0.00014658,0.00045548,0.00016824,0.00027238,0.000
 01300,0.00029909,-0.00000475,0.00039250,-0.00004664,0.00020574,-0.0026
 0343,0.00125794,-0.00142871,0.00107540,-0.00063482,-0.00058972,-0.0077
 7043,-0.02561400,0.00243739,0.00095913,0.00036523,-0.00071704,0.000780
 36,0.00050957,-0.00033328,0.00012909,0.00018532,-0.00013851,-0.0000450
 9,-0.00005434,-0.00000925,0.00002454,0.00005216,0.00000444,-0.00003493
 ,0.00002001,-0.00000021,-0.00009710,0.00011934,0.00009574,0.00099156,0
 .00074483,0.00010357,-0.00000962,-0.00004000,0.00002465,-0.00003261,0.
 00003795,0.00004493,0.00003220,0.00000461,0.00001388,0.00028926,0.0002
 7731,0.00067259,-0.00004796,0.00009030,0.00011679,0.00145457,-0.002613
 66,0.00045071,-0.00027280,0.00002793,-0.00036994,0.00001797,-0.0000259
 6,0.00000149,0.00000837,-0.00000769,-0.00000163,-0.00000180,-0.0000015
 4,0.00000184,0.00001534,-0.00000796,0.00000262,0.00002167,-0.00003363,
 0.00000750,-0.00007977,-0.00001168,-0.00014931,0.00006436,0.00020075,-
 0.00022460,0.00014856,0.00032205,0.00022004,-0.10363087,-0.20940988,0.
 06712169,-0.00052418,0.00011242,0.00083964,0.10893056,0.23360237,-0.00
 003296,-0.00002099,-0.00000695,0.00004275,0.00004342,0.00004014,0.0000
 8292,-0.00027779,-0.00012621,0.00008785,0.00078908,0.00040881,-0.00031
 132,0.00029371,0.00062569,0.00003708,-0.00003006,-0.00038849,-0.005248
 98,-0.01180162,0.00259525,-0.00790221,-0.00977165,0.00311493,-0.001916
 93,0.00111595,-0.00057726,0.00023745,-0.00019696,-0.00020602,0.0001527
 6,-0.00027023,0.00016883,-0.00004460,0.00004701,0.00013979,0.00019822,
 -0.00001987,-0.00008469,-0.00006727,-0.00048036,0.00014234,0.00048366,
 -0.00031834,0.00006423,-0.00001373,-0.00001383,0.00000964,0.00002371,-
 0.00002868,-0.00001721,-0.00001613,0.00001015,0.00000168,-0.00040398,0
 .00000768,-0.00048051,-0.00000919,-0.00000679,0.00001442,0.00077790,-0
 .00114255,-0.00125858,0.00050216,-0.00050850,0.00038401,-0.00028110,0.
 00019646,0.00038346,-0.00000221,-0.00002627,0.00000342,-0.00002100,0.0
 0004663,0.00002190,-0.00003238,-0.00001986,0.00000664,-0.00006717,0.00
 004068,0.00001178,0.00006450,0.00014713,-0.00010412,-0.00000098,-0.000
 20107,-0.00014313,0.00022266,0.00001358,0.00023913,0.03847971,0.064282
 82,-0.06635623,0.01646937,0.02662519,-0.01232274,-0.04149056,-0.068524
 08,0.07369605\\-0.00000287,-0.00000365,-0.00000029,-0.00000209,0.00000
 877,0.00000583,0.00001288,-0.00000701,0.00000034,-0.00002027,-0.000004
 14,-0.00000890,0.00002189,0.00000083,0.00001173,-0.00000673,0.00000001
 ,-0.00000034,-0.00001784,0.00001569,0.00000092,0.00000548,0.00002016,0
 .00000018,-0.00000384,-0.00001811,0.00000121,0.,0.00000788,0.00000154,
 -0.00000068,0.00000283,0.00000134,0.00000027,-0.00000199,-0.00000031,-
 0.00000256,-0.00000345,0.00000322,0.00000300,0.00001091,-0.00000004,0.
 00000852,-0.00002107,-0.00000810,-0.00000013,-0.00000062,0.00000301,-0
 .00000021,-0.00000204,0.00000064,-0.00000246,0.00000126,-0.00000040,0.
 00000174,0.00000193,-0.00000001,0.00000119,-0.00000187,0.00000246,0.00
 000542,-0.00000380,-0.00000292,-0.00000163,-0.00000140,-0.00000376,0.0
 0000007,0.00000129,-0.00000086,0.00000015,0.00000301,0.00000072,-0.000
 00088,0.00000204,0.00000150,0.00000079,-0.00000012,0.00000079,-0.00000
 097,-0.00000277,-0.00000035,-0.00000145,0.00000389,0.00000206,-0.00000
 185,0.00000053,-0.00000377,0.00000134,0.00000506,-0.00000278,-0.000005
 89,-0.00003352,-0.00001182,0.00000492,0.00000954,0.00000656,0.00000466
 ,0.00000990,0.00000058\\\@
 The archive entry for this job was punched.


 ... SUBJECTS WHICH DISCLOSE THEIR FULL POWER, MEANING AND BEAUTY AS SOON
 AS THEY ARE PRESENTED TO THE MIND HAVE VERY LITTLE OF THOSE QUALITIES
 TO DISCLOSE.
                           -- CHARLES DUTTON (1882)
 Job cpu time:       0 days 18 hours 51 minutes 11.9 seconds.
 Elapsed time:       0 days  0 hours 41 minutes 53.8 seconds.
 File lengths (MBytes):  RWF=   1830 Int=      0 D2E=      0 Chk=     41 Scr=      1
 Normal termination of Gaussian 16 at Sun Feb 23 19:52:18 2025.
