 Entering Gaussian System, Link 0=g16
 Input=gjfs/data_set_12-St_dormant-24.gjf
 Output=gjfs/data_set_12-St_dormant-24.log
 Initial command:
 /usr/local/intel/g16/l1.exe "/scr/Gau-1128436.inp" -scrdir="/scr/"
 Entering Link 1 = /usr/local/intel/g16/l1.exe PID=   1128438.
  
 Copyright (c) 1988-2019, Gaussian, Inc.  All Rights Reserved.
  
 This is part of the Gaussian(R) 16 program.  It is based on
 the Gaussian(R) 09 system (copyright 2009, Gaussian, Inc.),
 the Gaussian(R) 03 system (copyright 2003, Gaussian, Inc.),
 the Gaussian(R) 98 system (copyright 1998, Gaussian, Inc.),
 the Gaussian(R) 94 system (copyright 1995, Gaussian, Inc.),
 the Gaussian 92(TM) system (copyright 1992, Gaussian, Inc.),
 the Gaussian 90(TM) system (copyright 1990, Gaussian, Inc.),
 the Gaussian 88(TM) system (copyright 1988, Gaussian, Inc.),
 the Gaussian 86(TM) system (copyright 1986, Carnegie Mellon
 University), and the Gaussian 82(TM) system (copyright 1983,
 Carnegie Mellon University). Gaussian is a federally registered
 trademark of Gaussian, Inc.
  
 This software contains proprietary and confidential information,
 including trade secrets, belonging to Gaussian, Inc.
  
 This software is provided under written license and may be
 used, copied, transmitted, or stored only in accord with that
 written license.
  
 The following legend is applicable only to US Government
 contracts under FAR:
  
                    RESTRICTED RIGHTS LEGEND
  
 Use, reproduction and disclosure by the US Government is
 subject to restrictions as set forth in subparagraphs (a)
 and (c) of the Commercial Computer Software - Restricted
 Rights clause in FAR 52.227-19.
  
 Gaussian, Inc.
 340 Quinnipiac St., Bldg. 40, Wallingford CT 06492
  
  
 ---------------------------------------------------------------
 Warning -- This program may not be used in any manner that
 competes with the business of Gaussian, Inc. or will provide
 assistance to any competitor of Gaussian, Inc.  The licensee
 of this program is prohibited from giving any competitor of
 Gaussian, Inc. access to this program.  By using this program,
 the user acknowledges that Gaussian, Inc. is engaged in the
 business of creating and licensing software in the field of
 computational chemistry and represents and warrants to the
 licensee that it is not a competitor of Gaussian, Inc. and that
 it will not use this program in any manner prohibited above.
 ---------------------------------------------------------------
  

 Cite this work as:
 Gaussian 16, Revision C.01,
 M. J. Frisch, G. W. Trucks, H. B. Schlegel, G. E. Scuseria, 
 M. A. Robb, J. R. Cheeseman, G. Scalmani, V. Barone, 
 G. A. Petersson, H. Nakatsuji, X. Li, M. Caricato, A. V. Marenich, 
 J. Bloino, B. G. Janesko, R. Gomperts, B. Mennucci, H. P. Hratchian, 
 J. V. Ortiz, A. F. Izmaylov, J. L. Sonnenberg, D. Williams-Young, 
 F. Ding, F. Lipparini, F. Egidi, J. Goings, B. Peng, A. Petrone, 
 T. Henderson, D. Ranasinghe, V. G. Zakrzewski, J. Gao, N. Rega, 
 G. Zheng, W. Liang, M. Hada, M. Ehara, K. Toyota, R. Fukuda, 
 J. Hasegawa, M. Ishida, T. Nakajima, Y. Honda, O. Kitao, H. Nakai, 
 T. Vreven, K. Throssell, J. A. Montgomery, Jr., J. E. Peralta, 
 F. Ogliaro, M. J. Bearpark, J. J. Heyd, E. N. Brothers, K. N. Kudin, 
 V. N. Staroverov, T. A. Keith, R. Kobayashi, J. Normand, 
 K. Raghavachari, A. P. Rendell, J. C. Burant, S. S. Iyengar, 
 J. Tomasi, M. Cossi, J. M. Millam, M. Klene, C. Adamo, R. Cammi, 
 J. W. Ochterski, R. L. Martin, K. Morokuma, O. Farkas, 
 J. B. Foresman, and D. J. Fox, Gaussian, Inc., Wallingford CT, 2019.
 
 ******************************************
 Gaussian 16:  ES64L-G16RevC.01  3-Jul-2019
                 8-Jan-2025 
 ******************************************
 %nprocshared=20
 Will use up to   20 processors via shared memory.
 %mem=30GB
 %chk=outputs/data_set_12-St_dormant-24.chk
 ----------------------------------
 #p M062X/DEF2TZVP opt freq pop=NBO
 ----------------------------------
 1/18=20,19=15,26=3,38=1/1,3;
 2/9=110,12=2,17=6,18=5,40=1/2;
 3/5=44,7=101,11=2,25=1,30=1,71=1,74=-55/1,2,3;
 4//1;
 5/5=2,38=5/2;
 6/7=2,8=2,9=2,10=2,28=1,40=1/1,7;
 7//1,2,3,16;
 1/18=20,19=15,26=3/3(2);
 2/9=110/2;
 99//99;
 2/9=110/2;
 3/5=44,7=101,11=2,25=1,30=1,71=1,74=-55/1,2,3;
 4/5=5,16=3,69=1/1;
 5/5=2,38=5/2;
 7//1,2,3,16;
 1/18=20,19=15,26=3/3(-5);
 2/9=110/2;
 6/7=2,8=2,9=2,10=2,19=2,28=1,40=1/1,7;
 99/9=1/99;
 Leave Link    1 at Wed Jan  8 06:34:43 2025, MaxMem=  4026531840 cpu:              22.9 elap:               4.1
 (Enter /usr/local/intel/g16/l101.exe)
 -------------------------
 data_set_12-St_dormant-24
 -------------------------
 Symbolic Z-matrix:
 Charge =  0 Multiplicity = 1
 C                    -2.69792   2.57395  -2.08071 
 C                    -3.32331   3.49448  -1.22613 
 C                    -2.8367    3.66767   0.07887 
 C                    -1.73959   2.92001   0.52642 
 C                    -1.11185   1.98772  -0.31746 
 C                    -1.59942   1.8317   -1.62608 
 C                     0.05371   1.1274    0.13612 
 C                     2.18602   0.95836   1.59833 
 C                     3.06618   0.49068   0.44686 
 C                     3.35442   1.31625  -0.65577 
 C                     4.18951   0.87043  -1.69032 
 C                     4.76105  -0.41014  -1.63539 
 C                     4.49233  -1.23748  -0.53444 
 C                     3.65146  -0.78754   0.49277 
 C                     3.03485   1.75684   2.61491 
 H                    -3.06573   2.4338   -3.09203 
 H                    -4.17522   4.07082  -1.5724 
 H                    -3.31303   4.37987   0.745 
 H                    -1.38731   3.0597    1.54321 
 H                    -1.1266    1.10905  -2.28284 
 H                     0.64022   0.86361  -0.74789 
 H                     1.79872   0.06508   2.10123 
 H                     2.9213    2.31057  -0.71645 
 H                     4.39302   1.51895  -2.53658 
 H                     5.40529  -0.75656  -2.43684 
 H                     4.92883  -2.22965  -0.47997 
 H                     3.43687  -1.43872   1.33599 
 H                     3.44376   2.66172   2.14892 
 H                     3.87557   1.1566    2.97807 
 H                     2.42754   2.05821   3.4767 
 C                     0.96485   1.7999    1.16866 
 H                     1.28812   2.76906   0.76677 
 H                     0.38493   2.0115    2.07495 
 O                    -0.35933  -0.12411   0.79991 
 N                    -1.1884   -1.00914  -0.02496 
 C                    -0.32717  -2.12952  -0.55465 
 C                    -1.25944  -3.10967  -1.3093 
 C                    -2.46035  -3.58103  -0.48279 
 C                    -3.24806  -2.35856   0.00083 
 C                    -2.39063  -1.36121   0.81446 
 C                     0.65063  -1.54589  -1.59601 
 C                     0.50704  -2.86218   0.52628 
 C                    -2.04144  -1.93448   2.21258 
 C                    -3.22373  -0.08354   1.02209 
 H                    -0.65191  -3.96272  -1.63591 
 H                    -1.62808  -2.60483  -2.21237 
 H                    -2.13109  -4.19131   0.36724 
 H                    -3.10441  -4.2221   -1.09579 
 H                    -4.09504  -2.66417   0.6272 
 H                    -3.65721  -1.82937  -0.87 
 H                     1.46503  -0.98953  -1.12683 
 H                     0.11915  -0.8936   -2.29649 
 H                     1.10473  -2.36558  -2.16534 
 H                    -0.0725   -3.60609   1.07852 
 H                     0.90841  -2.13266   1.23501 
 H                     1.34833  -3.37813   0.04964 
 H                    -2.93029  -1.88859   2.85218 
 H                    -1.25309  -1.33329   2.67349 
 H                    -1.71176  -2.97544   2.17826 
 H                    -3.40515   0.42012   0.0685 
 H                    -2.7138    0.61423   1.69038 
 H                    -4.18868  -0.3486    1.47107 
 
 ITRead=  0  0  0  0  0  0  0  0  0  0  0  0  0  0  0  0  0  0  0  0
 ITRead=  0  0  0  0  0  0  0  0  0  0  0  0  0  0  0  0  0  0  0  0
 ITRead=  0  0  0  0  0  0  0  0  0  0  0  0  0  0  0  0  0  0  0  0
 ITRead=  0  0
 MicOpt= -1 -1 -1 -1 -1 -1 -1 -1 -1 -1 -1 -1 -1 -1 -1 -1 -1 -1 -1 -1
 MicOpt= -1 -1 -1 -1 -1 -1 -1 -1 -1 -1 -1 -1 -1 -1 -1 -1 -1 -1 -1 -1
 MicOpt= -1 -1 -1 -1 -1 -1 -1 -1 -1 -1 -1 -1 -1 -1 -1 -1 -1 -1 -1 -1
 MicOpt= -1 -1
 NAtoms=     62 NQM=       62 NQMF=       0 NMMI=      0 NMMIF=      0
                NMic=       0 NMicF=      0.
                    Isotopes and Nuclear Properties:
 (Nuclear quadrupole moments (NQMom) in fm**2, nuclear magnetic moments (NMagM)
  in nuclear magnetons)

  Atom         1           2           3           4           5           6           7           8           9          10
 IAtWgt=          12          12          12          12          12          12          12          12          12          12
 AtmWgt=  12.0000000  12.0000000  12.0000000  12.0000000  12.0000000  12.0000000  12.0000000  12.0000000  12.0000000  12.0000000
 NucSpn=           0           0           0           0           0           0           0           0           0           0
 AtZEff=  -0.0000000  -0.0000000  -0.0000000  -0.0000000  -0.0000000  -0.0000000  -0.0000000  -0.0000000  -0.0000000  -0.0000000
 NQMom=    0.0000000   0.0000000   0.0000000   0.0000000   0.0000000   0.0000000   0.0000000   0.0000000   0.0000000   0.0000000
 NMagM=    0.0000000   0.0000000   0.0000000   0.0000000   0.0000000   0.0000000   0.0000000   0.0000000   0.0000000   0.0000000
 AtZNuc=   6.0000000   6.0000000   6.0000000   6.0000000   6.0000000   6.0000000   6.0000000   6.0000000   6.0000000   6.0000000

  Atom        11          12          13          14          15          16          17          18          19          20
 IAtWgt=          12          12          12          12          12           1           1           1           1           1
 AtmWgt=  12.0000000  12.0000000  12.0000000  12.0000000  12.0000000   1.0078250   1.0078250   1.0078250   1.0078250   1.0078250
 NucSpn=           0           0           0           0           0           1           1           1           1           1
 AtZEff=  -0.0000000  -0.0000000  -0.0000000  -0.0000000  -0.0000000  -0.0000000  -0.0000000  -0.0000000  -0.0000000  -0.0000000
 NQMom=    0.0000000   0.0000000   0.0000000   0.0000000   0.0000000   0.0000000   0.0000000   0.0000000   0.0000000   0.0000000
 NMagM=    0.0000000   0.0000000   0.0000000   0.0000000   0.0000000   2.7928460   2.7928460   2.7928460   2.7928460   2.7928460
 AtZNuc=   6.0000000   6.0000000   6.0000000   6.0000000   6.0000000   1.0000000   1.0000000   1.0000000   1.0000000   1.0000000

  Atom        21          22          23          24          25          26          27          28          29          30
 IAtWgt=           1           1           1           1           1           1           1           1           1           1
 AtmWgt=   1.0078250   1.0078250   1.0078250   1.0078250   1.0078250   1.0078250   1.0078250   1.0078250   1.0078250   1.0078250
 NucSpn=           1           1           1           1           1           1           1           1           1           1
 AtZEff=  -0.0000000  -0.0000000  -0.0000000  -0.0000000  -0.0000000  -0.0000000  -0.0000000  -0.0000000  -0.0000000  -0.0000000
 NQMom=    0.0000000   0.0000000   0.0000000   0.0000000   0.0000000   0.0000000   0.0000000   0.0000000   0.0000000   0.0000000
 NMagM=    2.7928460   2.7928460   2.7928460   2.7928460   2.7928460   2.7928460   2.7928460   2.7928460   2.7928460   2.7928460
 AtZNuc=   1.0000000   1.0000000   1.0000000   1.0000000   1.0000000   1.0000000   1.0000000   1.0000000   1.0000000   1.0000000

  Atom        31          32          33          34          35          36          37          38          39          40
 IAtWgt=          12           1           1          16          14          12          12          12          12          12
 AtmWgt=  12.0000000   1.0078250   1.0078250  15.9949146  14.0030740  12.0000000  12.0000000  12.0000000  12.0000000  12.0000000
 NucSpn=           0           1           1           0           2           0           0           0           0           0
 AtZEff=  -0.0000000  -0.0000000  -0.0000000  -0.0000000  -0.0000000  -0.0000000  -0.0000000  -0.0000000  -0.0000000  -0.0000000
 NQMom=    0.0000000   0.0000000   0.0000000   0.0000000   2.0440000   0.0000000   0.0000000   0.0000000   0.0000000   0.0000000
 NMagM=    0.0000000   2.7928460   2.7928460   0.0000000   0.4037610   0.0000000   0.0000000   0.0000000   0.0000000   0.0000000
 AtZNuc=   6.0000000   1.0000000   1.0000000   8.0000000   7.0000000   6.0000000   6.0000000   6.0000000   6.0000000   6.0000000

  Atom        41          42          43          44          45          46          47          48          49          50
 IAtWgt=          12          12          12          12           1           1           1           1           1           1
 AtmWgt=  12.0000000  12.0000000  12.0000000  12.0000000   1.0078250   1.0078250   1.0078250   1.0078250   1.0078250   1.0078250
 NucSpn=           0           0           0           0           1           1           1           1           1           1
 AtZEff=  -0.0000000  -0.0000000  -0.0000000  -0.0000000  -0.0000000  -0.0000000  -0.0000000  -0.0000000  -0.0000000  -0.0000000
 NQMom=    0.0000000   0.0000000   0.0000000   0.0000000   0.0000000   0.0000000   0.0000000   0.0000000   0.0000000   0.0000000
 NMagM=    0.0000000   0.0000000   0.0000000   0.0000000   2.7928460   2.7928460   2.7928460   2.7928460   2.7928460   2.7928460
 AtZNuc=   6.0000000   6.0000000   6.0000000   6.0000000   1.0000000   1.0000000   1.0000000   1.0000000   1.0000000   1.0000000

  Atom        51          52          53          54          55          56          57          58          59          60
 IAtWgt=           1           1           1           1           1           1           1           1           1           1
 AtmWgt=   1.0078250   1.0078250   1.0078250   1.0078250   1.0078250   1.0078250   1.0078250   1.0078250   1.0078250   1.0078250
 NucSpn=           1           1           1           1           1           1           1           1           1           1
 AtZEff=  -0.0000000  -0.0000000  -0.0000000  -0.0000000  -0.0000000  -0.0000000  -0.0000000  -0.0000000  -0.0000000  -0.0000000
 NQMom=    0.0000000   0.0000000   0.0000000   0.0000000   0.0000000   0.0000000   0.0000000   0.0000000   0.0000000   0.0000000
 NMagM=    2.7928460   2.7928460   2.7928460   2.7928460   2.7928460   2.7928460   2.7928460   2.7928460   2.7928460   2.7928460
 AtZNuc=   1.0000000   1.0000000   1.0000000   1.0000000   1.0000000   1.0000000   1.0000000   1.0000000   1.0000000   1.0000000

  Atom        61          62
 IAtWgt=           1           1
 AtmWgt=   1.0078250   1.0078250
 NucSpn=           1           1
 AtZEff=  -0.0000000  -0.0000000
 NQMom=    0.0000000   0.0000000
 NMagM=    2.7928460   2.7928460
 AtZNuc=   1.0000000   1.0000000
 Leave Link  101 at Wed Jan  8 06:34:46 2025, MaxMem=  4026531840 cpu:              28.0 elap:               1.6
 (Enter /usr/local/intel/g16/l103.exe)

 GradGradGradGradGradGradGradGradGradGradGradGradGradGradGradGradGradGrad
 Berny optimization.
 Initialization pass.
                           ----------------------------
                           !    Initial Parameters    !
                           ! (Angstroms and Degrees)  !
 --------------------------                            --------------------------
 ! Name  Definition              Value          Derivative Info.                !
 --------------------------------------------------------------------------------
 ! R1    R(1,2)                  1.4031         estimate D2E/DX2                !
 ! R2    R(1,6)                  1.4015         estimate D2E/DX2                !
 ! R3    R(1,16)                 1.0852         estimate D2E/DX2                !
 ! R4    R(2,3)                  1.4035         estimate D2E/DX2                !
 ! R5    R(2,17)                 1.0853         estimate D2E/DX2                !
 ! R6    R(3,4)                  1.401          estimate D2E/DX2                !
 ! R7    R(3,18)                 1.0853         estimate D2E/DX2                !
 ! R8    R(4,5)                  1.4055         estimate D2E/DX2                !
 ! R9    R(4,19)                 1.0851         estimate D2E/DX2                !
 ! R10   R(5,6)                  1.4052         estimate D2E/DX2                !
 ! R11   R(5,7)                  1.518          estimate D2E/DX2                !
 ! R12   R(6,20)                 1.0849         estimate D2E/DX2                !
 ! R13   R(7,21)                 1.0932         estimate D2E/DX2                !
 ! R14   R(7,31)                 1.5325         estimate D2E/DX2                !
 ! R15   R(7,34)                 1.4756         estimate D2E/DX2                !
 ! R16   R(8,9)                  1.5229         estimate D2E/DX2                !
 ! R17   R(8,15)                 1.5465         estimate D2E/DX2                !
 ! R18   R(8,22)                 1.0958         estimate D2E/DX2                !
 ! R19   R(8,31)                 1.544          estimate D2E/DX2                !
 ! R20   R(9,10)                 1.4073         estimate D2E/DX2                !
 ! R21   R(9,14)                 1.4066         estimate D2E/DX2                !
 ! R22   R(10,11)                1.4023         estimate D2E/DX2                !
 ! R23   R(10,23)                1.0863         estimate D2E/DX2                !
 ! R24   R(11,12)                1.4034         estimate D2E/DX2                !
 ! R25   R(11,24)                1.0854         estimate D2E/DX2                !
 ! R26   R(12,13)                1.4031         estimate D2E/DX2                !
 ! R27   R(12,25)                1.0851         estimate D2E/DX2                !
 ! R28   R(13,14)                1.4017         estimate D2E/DX2                !
 ! R29   R(13,26)                1.0853         estimate D2E/DX2                !
 ! R30   R(14,27)                1.0868         estimate D2E/DX2                !
 ! R31   R(15,28)                1.0969         estimate D2E/DX2                !
 ! R32   R(15,29)                1.095          estimate D2E/DX2                !
 ! R33   R(15,30)                1.0965         estimate D2E/DX2                !
 ! R34   R(31,32)                1.0979         estimate D2E/DX2                !
 ! R35   R(31,33)                1.0966         estimate D2E/DX2                !
 ! R36   R(34,35)                1.4666         estimate D2E/DX2                !
 ! R37   R(35,36)                1.5092         estimate D2E/DX2                !
 ! R38   R(35,40)                1.508          estimate D2E/DX2                !
 ! R39   R(36,37)                1.549          estimate D2E/DX2                !
 ! R40   R(36,41)                1.5431         estimate D2E/DX2                !
 ! R41   R(36,42)                1.5495         estimate D2E/DX2                !
 ! R42   R(37,38)                1.5321         estimate D2E/DX2                !
 ! R43   R(37,45)                1.097          estimate D2E/DX2                !
 ! R44   R(37,46)                1.0983         estimate D2E/DX2                !
 ! R45   R(38,39)                1.5326         estimate D2E/DX2                !
 ! R46   R(38,47)                1.097          estimate D2E/DX2                !
 ! R47   R(38,48)                1.0962         estimate D2E/DX2                !
 ! R48   R(39,40)                1.5466         estimate D2E/DX2                !
 ! R49   R(39,49)                1.0969         estimate D2E/DX2                !
 ! R50   R(39,50)                1.0981         estimate D2E/DX2                !
 ! R51   R(40,43)                1.5509         estimate D2E/DX2                !
 ! R52   R(40,44)                1.5394         estimate D2E/DX2                !
 ! R53   R(41,51)                1.0922         estimate D2E/DX2                !
 ! R54   R(41,52)                1.0948         estimate D2E/DX2                !
 ! R55   R(41,53)                1.0965         estimate D2E/DX2                !
 ! R56   R(42,54)                1.0928         estimate D2E/DX2                !
 ! R57   R(42,55)                1.0934         estimate D2E/DX2                !
 ! R58   R(42,56)                1.096          estimate D2E/DX2                !
 ! R59   R(43,57)                1.096          estimate D2E/DX2                !
 ! R60   R(43,58)                1.0933         estimate D2E/DX2                !
 ! R61   R(43,59)                1.0925         estimate D2E/DX2                !
 ! R62   R(44,60)                1.0936         estimate D2E/DX2                !
 ! R63   R(44,61)                1.0925         estimate D2E/DX2                !
 ! R64   R(44,62)                1.0968         estimate D2E/DX2                !
 ! A1    A(2,1,6)              119.9483         estimate D2E/DX2                !
 ! A2    A(2,1,16)             120.0819         estimate D2E/DX2                !
 ! A3    A(6,1,16)             119.9695         estimate D2E/DX2                !
 ! A4    A(1,2,3)              119.5198         estimate D2E/DX2                !
 ! A5    A(1,2,17)             120.2613         estimate D2E/DX2                !
 ! A6    A(3,2,17)             120.2186         estimate D2E/DX2                !
 ! A7    A(2,3,4)              120.1767         estimate D2E/DX2                !
 ! A8    A(2,3,18)             119.9678         estimate D2E/DX2                !
 ! A9    A(4,3,18)             119.8552         estimate D2E/DX2                !
 ! A10   A(3,4,5)              120.7926         estimate D2E/DX2                !
 ! A11   A(3,4,19)             119.0023         estimate D2E/DX2                !
 ! A12   A(5,4,19)             120.1991         estimate D2E/DX2                !
 ! A13   A(4,5,6)              118.544          estimate D2E/DX2                !
 ! A14   A(4,5,7)              122.6472         estimate D2E/DX2                !
 ! A15   A(6,5,7)              118.7997         estimate D2E/DX2                !
 ! A16   A(1,6,5)              121.0133         estimate D2E/DX2                !
 ! A17   A(1,6,20)             119.8651         estimate D2E/DX2                !
 ! A18   A(5,6,20)             119.1094         estimate D2E/DX2                !
 ! A19   A(5,7,21)             107.8833         estimate D2E/DX2                !
 ! A20   A(5,7,31)             114.1494         estimate D2E/DX2                !
 ! A21   A(5,7,34)             113.5875         estimate D2E/DX2                !
 ! A22   A(21,7,31)            109.3752         estimate D2E/DX2                !
 ! A23   A(21,7,34)            108.0153         estimate D2E/DX2                !
 ! A24   A(31,7,34)            103.6217         estimate D2E/DX2                !
 ! A25   A(9,8,15)             109.777          estimate D2E/DX2                !
 ! A26   A(9,8,22)             107.5133         estimate D2E/DX2                !
 ! A27   A(9,8,31)             114.4605         estimate D2E/DX2                !
 ! A28   A(15,8,22)            108.252          estimate D2E/DX2                !
 ! A29   A(15,8,31)            109.6103         estimate D2E/DX2                !
 ! A30   A(22,8,31)            107.0057         estimate D2E/DX2                !
 ! A31   A(8,9,10)             122.0483         estimate D2E/DX2                !
 ! A32   A(8,9,14)             119.6609         estimate D2E/DX2                !
 ! A33   A(10,9,14)            118.2584         estimate D2E/DX2                !
 ! A34   A(9,10,11)            120.898          estimate D2E/DX2                !
 ! A35   A(9,10,23)            119.94           estimate D2E/DX2                !
 ! A36   A(11,10,23)           119.1603         estimate D2E/DX2                !
 ! A37   A(10,11,12)           120.2484         estimate D2E/DX2                !
 ! A38   A(10,11,24)           119.7954         estimate D2E/DX2                !
 ! A39   A(12,11,24)           119.9561         estimate D2E/DX2                !
 ! A40   A(11,12,13)           119.3891         estimate D2E/DX2                !
 ! A41   A(11,12,25)           120.2789         estimate D2E/DX2                !
 ! A42   A(13,12,25)           120.332          estimate D2E/DX2                !
 ! A43   A(12,13,14)           120.0423         estimate D2E/DX2                !
 ! A44   A(12,13,26)           120.0913         estimate D2E/DX2                !
 ! A45   A(14,13,26)           119.8648         estimate D2E/DX2                !
 ! A46   A(9,14,13)            121.1585         estimate D2E/DX2                !
 ! A47   A(9,14,27)            119.1867         estimate D2E/DX2                !
 ! A48   A(13,14,27)           119.6514         estimate D2E/DX2                !
 ! A49   A(8,15,28)            110.5674         estimate D2E/DX2                !
 ! A50   A(8,15,29)            110.8797         estimate D2E/DX2                !
 ! A51   A(8,15,30)            110.7662         estimate D2E/DX2                !
 ! A52   A(28,15,29)           107.8717         estimate D2E/DX2                !
 ! A53   A(28,15,30)           108.2784         estimate D2E/DX2                !
 ! A54   A(29,15,30)           108.3754         estimate D2E/DX2                !
 ! A55   A(7,31,8)             114.7423         estimate D2E/DX2                !
 ! A56   A(7,31,32)            108.4095         estimate D2E/DX2                !
 ! A57   A(7,31,33)            109.0935         estimate D2E/DX2                !
 ! A58   A(8,31,32)            110.4946         estimate D2E/DX2                !
 ! A59   A(8,31,33)            107.0646         estimate D2E/DX2                !
 ! A60   A(32,31,33)           106.7337         estimate D2E/DX2                !
 ! A61   A(7,34,35)            114.6464         estimate D2E/DX2                !
 ! A62   A(34,35,36)           108.8317         estimate D2E/DX2                !
 ! A63   A(34,35,40)           106.17           estimate D2E/DX2                !
 ! A64   A(36,35,40)           118.491          estimate D2E/DX2                !
 ! A65   A(35,36,37)           107.295          estimate D2E/DX2                !
 ! A66   A(35,36,41)           108.5233         estimate D2E/DX2                !
 ! A67   A(35,36,42)           114.419          estimate D2E/DX2                !
 ! A68   A(37,36,41)           106.9732         estimate D2E/DX2                !
 ! A69   A(37,36,42)           111.3877         estimate D2E/DX2                !
 ! A70   A(41,36,42)           107.9665         estimate D2E/DX2                !
 ! A71   A(36,37,38)           113.8038         estimate D2E/DX2                !
 ! A72   A(36,37,45)           107.6846         estimate D2E/DX2                !
 ! A73   A(36,37,46)           108.1642         estimate D2E/DX2                !
 ! A74   A(38,37,45)           110.8214         estimate D2E/DX2                !
 ! A75   A(38,37,46)           108.7768         estimate D2E/DX2                !
 ! A76   A(45,37,46)           107.3675         estimate D2E/DX2                !
 ! A77   A(37,38,39)           109.1289         estimate D2E/DX2                !
 ! A78   A(37,38,47)           110.7254         estimate D2E/DX2                !
 ! A79   A(37,38,48)           109.8026         estimate D2E/DX2                !
 ! A80   A(39,38,47)           110.7017         estimate D2E/DX2                !
 ! A81   A(39,38,48)           109.9362         estimate D2E/DX2                !
 ! A82   A(47,38,48)           106.5187         estimate D2E/DX2                !
 ! A83   A(38,39,40)           113.2937         estimate D2E/DX2                !
 ! A84   A(38,39,49)           110.784          estimate D2E/DX2                !
 ! A85   A(38,39,50)           109.0056         estimate D2E/DX2                !
 ! A86   A(40,39,49)           107.8998         estimate D2E/DX2                !
 ! A87   A(40,39,50)           108.2399         estimate D2E/DX2                !
 ! A88   A(49,39,50)           107.424          estimate D2E/DX2                !
 ! A89   A(35,40,39)           107.4407         estimate D2E/DX2                !
 ! A90   A(35,40,43)           114.1182         estimate D2E/DX2                !
 ! A91   A(35,40,44)           108.2263         estimate D2E/DX2                !
 ! A92   A(39,40,43)           111.1443         estimate D2E/DX2                !
 ! A93   A(39,40,44)           107.8282         estimate D2E/DX2                !
 ! A94   A(43,40,44)           107.8818         estimate D2E/DX2                !
 ! A95   A(36,41,51)           112.0398         estimate D2E/DX2                !
 ! A96   A(36,41,52)           110.4576         estimate D2E/DX2                !
 ! A97   A(36,41,53)           109.2748         estimate D2E/DX2                !
 ! A98   A(51,41,52)           109.4706         estimate D2E/DX2                !
 ! A99   A(51,41,53)           107.1607         estimate D2E/DX2                !
 ! A100  A(52,41,53)           108.3142         estimate D2E/DX2                !
 ! A101  A(36,42,54)           112.8851         estimate D2E/DX2                !
 ! A102  A(36,42,55)           109.5299         estimate D2E/DX2                !
 ! A103  A(36,42,56)           109.4186         estimate D2E/DX2                !
 ! A104  A(54,42,55)           108.7407         estimate D2E/DX2                !
 ! A105  A(54,42,56)           107.8418         estimate D2E/DX2                !
 ! A106  A(55,42,56)           108.313          estimate D2E/DX2                !
 ! A107  A(40,43,57)           109.1482         estimate D2E/DX2                !
 ! A108  A(40,43,58)           109.8241         estimate D2E/DX2                !
 ! A109  A(40,43,59)           113.0688         estimate D2E/DX2                !
 ! A110  A(57,43,58)           108.405          estimate D2E/DX2                !
 ! A111  A(57,43,59)           107.6358         estimate D2E/DX2                !
 ! A112  A(58,43,59)           108.638          estimate D2E/DX2                !
 ! A113  A(40,44,60)           110.7585         estimate D2E/DX2                !
 ! A114  A(40,44,61)           111.101          estimate D2E/DX2                !
 ! A115  A(40,44,62)           109.3154         estimate D2E/DX2                !
 ! A116  A(60,44,61)           108.4624         estimate D2E/DX2                !
 ! A117  A(60,44,62)           108.8026         estimate D2E/DX2                !
 ! A118  A(61,44,62)           108.3371         estimate D2E/DX2                !
 ! D1    D(6,1,2,3)              0.2826         estimate D2E/DX2                !
 ! D2    D(6,1,2,17)          -179.9074         estimate D2E/DX2                !
 ! D3    D(16,1,2,3)          -179.9119         estimate D2E/DX2                !
 ! D4    D(16,1,2,17)           -0.1018         estimate D2E/DX2                !
 ! D5    D(2,1,6,5)              0.3265         estimate D2E/DX2                !
 ! D6    D(2,1,6,20)           179.0417         estimate D2E/DX2                !
 ! D7    D(16,1,6,5)          -179.4793         estimate D2E/DX2                !
 ! D8    D(16,1,6,20)           -0.7641         estimate D2E/DX2                !
 ! D9    D(1,2,3,4)             -0.3988         estimate D2E/DX2                !
 ! D10   D(1,2,3,18)           179.8164         estimate D2E/DX2                !
 ! D11   D(17,2,3,4)           179.7911         estimate D2E/DX2                !
 ! D12   D(17,2,3,18)            0.0063         estimate D2E/DX2                !
 ! D13   D(2,3,4,5)             -0.0914         estimate D2E/DX2                !
 ! D14   D(2,3,4,19)          -179.2002         estimate D2E/DX2                !
 ! D15   D(18,3,4,5)           179.6936         estimate D2E/DX2                !
 ! D16   D(18,3,4,19)            0.5848         estimate D2E/DX2                !
 ! D17   D(3,4,5,6)              0.6854         estimate D2E/DX2                !
 ! D18   D(3,4,5,7)           -178.2096         estimate D2E/DX2                !
 ! D19   D(19,4,5,6)           179.7836         estimate D2E/DX2                !
 ! D20   D(19,4,5,7)             0.8886         estimate D2E/DX2                !
 ! D21   D(4,5,6,1)             -0.804          estimate D2E/DX2                !
 ! D22   D(4,5,6,20)          -179.5288         estimate D2E/DX2                !
 ! D23   D(7,5,6,1)            178.1342         estimate D2E/DX2                !
 ! D24   D(7,5,6,20)            -0.5905         estimate D2E/DX2                !
 ! D25   D(4,5,7,21)          -153.8934         estimate D2E/DX2                !
 ! D26   D(4,5,7,31)           -32.1105         estimate D2E/DX2                !
 ! D27   D(4,5,7,34)            86.4049         estimate D2E/DX2                !
 ! D28   D(6,5,7,21)            27.2143         estimate D2E/DX2                !
 ! D29   D(6,5,7,31)           148.9972         estimate D2E/DX2                !
 ! D30   D(6,5,7,34)           -92.4875         estimate D2E/DX2                !
 ! D31   D(5,7,31,8)          -177.7149         estimate D2E/DX2                !
 ! D32   D(5,7,31,32)          -53.6807         estimate D2E/DX2                !
 ! D33   D(5,7,31,33)           62.1894         estimate D2E/DX2                !
 ! D34   D(21,7,31,8)          -56.7569         estimate D2E/DX2                !
 ! D35   D(21,7,31,32)          67.2773         estimate D2E/DX2                !
 ! D36   D(21,7,31,33)        -176.8526         estimate D2E/DX2                !
 ! D37   D(34,7,31,8)           58.2384         estimate D2E/DX2                !
 ! D38   D(34,7,31,32)        -177.7274         estimate D2E/DX2                !
 ! D39   D(34,7,31,33)         -61.8573         estimate D2E/DX2                !
 ! D40   D(5,7,34,35)           59.1636         estimate D2E/DX2                !
 ! D41   D(21,7,34,35)         -60.4631         estimate D2E/DX2                !
 ! D42   D(31,7,34,35)        -176.4242         estimate D2E/DX2                !
 ! D43   D(15,8,9,10)          -84.2566         estimate D2E/DX2                !
 ! D44   D(15,8,9,14)           93.6402         estimate D2E/DX2                !
 ! D45   D(22,8,9,10)          158.1968         estimate D2E/DX2                !
 ! D46   D(22,8,9,14)          -23.9064         estimate D2E/DX2                !
 ! D47   D(31,8,9,10)           39.481          estimate D2E/DX2                !
 ! D48   D(31,8,9,14)         -142.6222         estimate D2E/DX2                !
 ! D49   D(9,8,15,28)           62.838          estimate D2E/DX2                !
 ! D50   D(9,8,15,29)          -56.7625         estimate D2E/DX2                !
 ! D51   D(9,8,15,30)         -177.1261         estimate D2E/DX2                !
 ! D52   D(22,8,15,28)         179.9231         estimate D2E/DX2                !
 ! D53   D(22,8,15,29)          60.3226         estimate D2E/DX2                !
 ! D54   D(22,8,15,30)         -60.041          estimate D2E/DX2                !
 ! D55   D(31,8,15,28)         -63.6905         estimate D2E/DX2                !
 ! D56   D(31,8,15,29)         176.709          estimate D2E/DX2                !
 ! D57   D(31,8,15,30)          56.3454         estimate D2E/DX2                !
 ! D58   D(9,8,31,7)            55.0247         estimate D2E/DX2                !
 ! D59   D(9,8,31,32)          -67.8959         estimate D2E/DX2                !
 ! D60   D(9,8,31,33)          176.2379         estimate D2E/DX2                !
 ! D61   D(15,8,31,7)          178.8516         estimate D2E/DX2                !
 ! D62   D(15,8,31,32)          55.931          estimate D2E/DX2                !
 ! D63   D(15,8,31,33)         -59.9352         estimate D2E/DX2                !
 ! D64   D(22,8,31,7)          -63.9772         estimate D2E/DX2                !
 ! D65   D(22,8,31,32)         173.1022         estimate D2E/DX2                !
 ! D66   D(22,8,31,33)          57.236          estimate D2E/DX2                !
 ! D67   D(8,9,10,11)          178.7268         estimate D2E/DX2                !
 ! D68   D(8,9,10,23)           -1.756          estimate D2E/DX2                !
 ! D69   D(14,9,10,11)           0.8017         estimate D2E/DX2                !
 ! D70   D(14,9,10,23)        -179.6811         estimate D2E/DX2                !
 ! D71   D(8,9,14,13)         -178.4661         estimate D2E/DX2                !
 ! D72   D(8,9,14,27)            2.1994         estimate D2E/DX2                !
 ! D73   D(10,9,14,13)          -0.49           estimate D2E/DX2                !
 ! D74   D(10,9,14,27)        -179.8245         estimate D2E/DX2                !
 ! D75   D(9,10,11,12)          -0.4683         estimate D2E/DX2                !
 ! D76   D(9,10,11,24)         179.4773         estimate D2E/DX2                !
 ! D77   D(23,10,11,12)       -179.9892         estimate D2E/DX2                !
 ! D78   D(23,10,11,24)         -0.0437         estimate D2E/DX2                !
 ! D79   D(10,11,12,13)         -0.1949         estimate D2E/DX2                !
 ! D80   D(10,11,12,25)        179.8458         estimate D2E/DX2                !
 ! D81   D(24,11,12,13)        179.8596         estimate D2E/DX2                !
 ! D82   D(24,11,12,25)         -0.0996         estimate D2E/DX2                !
 ! D83   D(11,12,13,14)          0.5038         estimate D2E/DX2                !
 ! D84   D(11,12,13,26)       -179.961          estimate D2E/DX2                !
 ! D85   D(25,12,13,14)       -179.537          estimate D2E/DX2                !
 ! D86   D(25,12,13,26)         -0.0017         estimate D2E/DX2                !
 ! D87   D(12,13,14,9)          -0.1582         estimate D2E/DX2                !
 ! D88   D(12,13,14,27)        179.1732         estimate D2E/DX2                !
 ! D89   D(26,13,14,9)        -179.6945         estimate D2E/DX2                !
 ! D90   D(26,13,14,27)         -0.3631         estimate D2E/DX2                !
 ! D91   D(7,34,35,36)         101.9015         estimate D2E/DX2                !
 ! D92   D(7,34,35,40)        -129.5154         estimate D2E/DX2                !
 ! D93   D(34,35,36,37)        174.9056         estimate D2E/DX2                !
 ! D94   D(34,35,36,41)        -69.8313         estimate D2E/DX2                !
 ! D95   D(34,35,36,42)         50.792          estimate D2E/DX2                !
 ! D96   D(40,35,36,37)         53.5809         estimate D2E/DX2                !
 ! D97   D(40,35,36,41)        168.844          estimate D2E/DX2                !
 ! D98   D(40,35,36,42)        -70.5327         estimate D2E/DX2                !
 ! D99   D(34,35,40,39)       -176.9101         estimate D2E/DX2                !
 ! D100  D(34,35,40,43)        -53.2053         estimate D2E/DX2                !
 ! D101  D(34,35,40,44)         66.9018         estimate D2E/DX2                !
 ! D102  D(36,35,40,39)        -54.2419         estimate D2E/DX2                !
 ! D103  D(36,35,40,43)         69.4629         estimate D2E/DX2                !
 ! D104  D(36,35,40,44)       -170.43           estimate D2E/DX2                !
 ! D105  D(35,36,37,38)        -52.7939         estimate D2E/DX2                !
 ! D106  D(35,36,37,45)       -176.0532         estimate D2E/DX2                !
 ! D107  D(35,36,37,46)         68.203          estimate D2E/DX2                !
 ! D108  D(41,36,37,38)       -169.0844         estimate D2E/DX2                !
 ! D109  D(41,36,37,45)         67.6563         estimate D2E/DX2                !
 ! D110  D(41,36,37,46)        -48.0875         estimate D2E/DX2                !
 ! D111  D(42,36,37,38)         73.1471         estimate D2E/DX2                !
 ! D112  D(42,36,37,45)        -50.1121         estimate D2E/DX2                !
 ! D113  D(42,36,37,46)       -165.8559         estimate D2E/DX2                !
 ! D114  D(35,36,41,51)         75.3267         estimate D2E/DX2                !
 ! D115  D(35,36,41,52)        -47.0056         estimate D2E/DX2                !
 ! D116  D(35,36,41,53)       -166.0671         estimate D2E/DX2                !
 ! D117  D(37,36,41,51)       -169.201          estimate D2E/DX2                !
 ! D118  D(37,36,41,52)         68.4667         estimate D2E/DX2                !
 ! D119  D(37,36,41,53)        -50.5948         estimate D2E/DX2                !
 ! D120  D(42,36,41,51)        -49.2139         estimate D2E/DX2                !
 ! D121  D(42,36,41,52)       -171.5462         estimate D2E/DX2                !
 ! D122  D(42,36,41,53)         69.3923         estimate D2E/DX2                !
 ! D123  D(35,36,42,54)         80.7109         estimate D2E/DX2                !
 ! D124  D(35,36,42,55)        -40.6045         estimate D2E/DX2                !
 ! D125  D(35,36,42,56)       -159.1945         estimate D2E/DX2                !
 ! D126  D(37,36,42,54)        -41.1906         estimate D2E/DX2                !
 ! D127  D(37,36,42,55)       -162.506          estimate D2E/DX2                !
 ! D128  D(37,36,42,56)         78.904          estimate D2E/DX2                !
 ! D129  D(41,36,42,54)       -158.3577         estimate D2E/DX2                !
 ! D130  D(41,36,42,55)         80.3269         estimate D2E/DX2                !
 ! D131  D(41,36,42,56)        -38.2631         estimate D2E/DX2                !
 ! D132  D(36,37,38,39)         56.159          estimate D2E/DX2                !
 ! D133  D(36,37,38,47)        -65.9336         estimate D2E/DX2                !
 ! D134  D(36,37,38,48)        176.7212         estimate D2E/DX2                !
 ! D135  D(45,37,38,39)        177.6913         estimate D2E/DX2                !
 ! D136  D(45,37,38,47)         55.5987         estimate D2E/DX2                !
 ! D137  D(45,37,38,48)        -61.7465         estimate D2E/DX2                !
 ! D138  D(46,37,38,39)        -64.4951         estimate D2E/DX2                !
 ! D139  D(46,37,38,47)        173.4124         estimate D2E/DX2                !
 ! D140  D(46,37,38,48)         56.0672         estimate D2E/DX2                !
 ! D141  D(37,38,39,40)        -56.5177         estimate D2E/DX2                !
 ! D142  D(37,38,39,49)       -177.9391         estimate D2E/DX2                !
 ! D143  D(37,38,39,50)         64.0605         estimate D2E/DX2                !
 ! D144  D(47,38,39,40)         65.5892         estimate D2E/DX2                !
 ! D145  D(47,38,39,49)        -55.8322         estimate D2E/DX2                !
 ! D146  D(47,38,39,50)       -173.8326         estimate D2E/DX2                !
 ! D147  D(48,38,39,40)       -176.998          estimate D2E/DX2                !
 ! D148  D(48,38,39,49)         61.5806         estimate D2E/DX2                !
 ! D149  D(48,38,39,50)        -56.4198         estimate D2E/DX2                !
 ! D150  D(38,39,40,35)         53.7843         estimate D2E/DX2                !
 ! D151  D(38,39,40,43)        -71.7177         estimate D2E/DX2                !
 ! D152  D(38,39,40,44)        170.2343         estimate D2E/DX2                !
 ! D153  D(49,39,40,35)        176.8121         estimate D2E/DX2                !
 ! D154  D(49,39,40,43)         51.3101         estimate D2E/DX2                !
 ! D155  D(49,39,40,44)        -66.7379         estimate D2E/DX2                !
 ! D156  D(50,39,40,35)        -67.2268         estimate D2E/DX2                !
 ! D157  D(50,39,40,43)        167.2711         estimate D2E/DX2                !
 ! D158  D(50,39,40,44)         49.2232         estimate D2E/DX2                !
 ! D159  D(35,40,43,57)        163.7123         estimate D2E/DX2                !
 ! D160  D(35,40,43,58)         44.9975         estimate D2E/DX2                !
 ! D161  D(35,40,43,59)        -76.5214         estimate D2E/DX2                !
 ! D162  D(39,40,43,57)        -74.6032         estimate D2E/DX2                !
 ! D163  D(39,40,43,58)        166.6819         estimate D2E/DX2                !
 ! D164  D(39,40,43,59)         45.1631         estimate D2E/DX2                !
 ! D165  D(44,40,43,57)         43.4123         estimate D2E/DX2                !
 ! D166  D(44,40,43,58)        -75.3025         estimate D2E/DX2                !
 ! D167  D(44,40,43,59)        163.1786         estimate D2E/DX2                !
 ! D168  D(35,40,44,60)         49.947          estimate D2E/DX2                !
 ! D169  D(35,40,44,61)        -70.6685         estimate D2E/DX2                !
 ! D170  D(35,40,44,62)        169.821          estimate D2E/DX2                !
 ! D171  D(39,40,44,60)        -65.9892         estimate D2E/DX2                !
 ! D172  D(39,40,44,61)        173.3953         estimate D2E/DX2                !
 ! D173  D(39,40,44,62)         53.8847         estimate D2E/DX2                !
 ! D174  D(43,40,44,60)        173.8842         estimate D2E/DX2                !
 ! D175  D(43,40,44,61)         53.2688         estimate D2E/DX2                !
 ! D176  D(43,40,44,62)        -66.2418         estimate D2E/DX2                !
 --------------------------------------------------------------------------------
 Trust Radius=3.00D-01 FncErr=1.00D-07 GrdErr=1.00D-06 EigMax=2.50D+02 EigMin=1.00D-04
 Number of steps in this run=    368 maximum allowed number of steps=    372.
 GradGradGradGradGradGradGradGradGradGradGradGradGradGradGradGradGradGrad

 Leave Link  103 at Wed Jan  8 06:34:48 2025, MaxMem=  4026531840 cpu:               0.7 elap:               1.4
 (Enter /usr/local/intel/g16/l202.exe)
 Stoichiometry    C25H35NO
 Framework group  C1[X(C25H35NO)]
 Deg. of freedom   180
 Full point group                 C1      NOp   1
 Largest Abelian subgroup         C1      NOp   1
 Largest concise Abelian subgroup C1      NOp   1
                         Standard orientation:                         
 ---------------------------------------------------------------------
 Center     Atomic      Atomic             Coordinates (Angstroms)
 Number     Number       Type             X           Y           Z
 ---------------------------------------------------------------------
      1          6           0       -2.697924    2.573949   -2.080708
      2          6           0       -3.323312    3.494484   -1.226131
      3          6           0       -2.836701    3.667666    0.078872
      4          6           0       -1.739589    2.920013    0.526416
      5          6           0       -1.111847    1.987721   -0.317458
      6          6           0       -1.599418    1.831699   -1.626080
      7          6           0        0.053714    1.127405    0.136121
      8          6           0        2.186017    0.958356    1.598325
      9          6           0        3.066181    0.490682    0.446857
     10          6           0        3.354423    1.316251   -0.655769
     11          6           0        4.189505    0.870427   -1.690318
     12          6           0        4.761050   -0.410143   -1.635389
     13          6           0        4.492325   -1.237476   -0.534436
     14          6           0        3.651464   -0.787536    0.492769
     15          6           0        3.034846    1.756843    2.614907
     16          1           0       -3.065733    2.433803   -3.092032
     17          1           0       -4.175216    4.070817   -1.572396
     18          1           0       -3.313028    4.379865    0.745004
     19          1           0       -1.387308    3.059704    1.543211
     20          1           0       -1.126601    1.109046   -2.282838
     21          1           0        0.640224    0.863609   -0.747887
     22          1           0        1.798723    0.065084    2.101235
     23          1           0        2.921297    2.310574   -0.716452
     24          1           0        4.393025    1.518946   -2.536582
     25          1           0        5.405290   -0.756562   -2.436835
     26          1           0        4.928826   -2.229646   -0.479971
     27          1           0        3.436865   -1.438724    1.335994
     28          1           0        3.443761    2.661716    2.148923
     29          1           0        3.875567    1.156595    2.978070
     30          1           0        2.427541    2.058208    3.476697
     31          6           0        0.964846    1.799899    1.168662
     32          1           0        1.288117    2.769062    0.766774
     33          1           0        0.384928    2.011500    2.074953
     34          8           0       -0.359325   -0.124114    0.799908
     35          7           0       -1.188399   -1.009138   -0.024963
     36          6           0       -0.327165   -2.129517   -0.554651
     37          6           0       -1.259443   -3.109671   -1.309296
     38          6           0       -2.460352   -3.581028   -0.482788
     39          6           0       -3.248065   -2.358563    0.000833
     40          6           0       -2.390632   -1.361214    0.814462
     41          6           0        0.650626   -1.545893   -1.596009
     42          6           0        0.507039   -2.862182    0.526277
     43          6           0       -2.041444   -1.934478    2.212581
     44          6           0       -3.223734   -0.083537    1.022093
     45          1           0       -0.651909   -3.962715   -1.635905
     46          1           0       -1.628081   -2.604833   -2.212374
     47          1           0       -2.131090   -4.191314    0.367243
     48          1           0       -3.104408   -4.222099   -1.095793
     49          1           0       -4.095037   -2.664170    0.627204
     50          1           0       -3.657205   -1.829369   -0.869996
     51          1           0        1.465026   -0.989529   -1.126829
     52          1           0        0.119148   -0.893604   -2.296490
     53          1           0        1.104726   -2.365579   -2.165344
     54          1           0       -0.072495   -3.606086    1.078522
     55          1           0        0.908407   -2.132656    1.235010
     56          1           0        1.348328   -3.378131    0.049641
     57          1           0       -2.930287   -1.888590    2.852180
     58          1           0       -1.253089   -1.333292    2.673488
     59          1           0       -1.711761   -2.975436    2.178264
     60          1           0       -3.405147    0.420123    0.068498
     61          1           0       -2.713796    0.614225    1.690376
     62          1           0       -4.188676   -0.348598    1.471067
 ---------------------------------------------------------------------
 Rotational constants (GHZ):           0.2361746           0.1647577           0.1252801
 Leave Link  202 at Wed Jan  8 06:34:50 2025, MaxMem=  4026531840 cpu:               0.1 elap:               0.1
 (Enter /usr/local/intel/g16/l301.exe)
 Standard basis: def2TZVP (5D, 7F)
 Ernie: Thresh=  0.10000D-02 Tol=  0.10000D-05 Strict=F.
 There are  1182 symmetry adapted cartesian basis functions of A   symmetry.
 There are  1047 symmetry adapted basis functions of A   symmetry.
  1047 basis functions,  1657 primitive gaussians,  1182 cartesian basis functions
   100 alpha electrons      100 beta electrons
       nuclear repulsion energy      2691.2071526123 Hartrees.
 IExCor= 4336 DFT=T Ex+Corr=M062X ExCW=0 ScaHFX=  0.540000
 ScaDFX=  1.000000  1.000000  1.000000  1.000000 ScalE2=  1.000000  1.000000
 IRadAn=      5 IRanWt=     -1 IRanGd=            0 ICorTp=0 IEmpDi=  4
 NAtoms=   62 NActive=   62 NUniq=   62 SFac= 1.00D+00 NAtFMM=   60 NAOKFM=T Big=T
 Integral buffers will be    131072 words long.
 Raffenetti 2 integral format.
 Two-electron integral symmetry is turned on.
 Leave Link  301 at Wed Jan  8 06:34:50 2025, MaxMem=  4026531840 cpu:               1.6 elap:               0.1
 (Enter /usr/local/intel/g16/l302.exe)
 NPDir=0 NMtPBC=     1 NCelOv=     1 NCel=       1 NClECP=     1 NCelD=      1
         NCelK=      1 NCelE2=     1 NClLst=     1 CellRange=     0.0.
 One-electron integrals computed using PRISM.
 One-electron integral symmetry used in STVInt
   1 Symmetry operations used in ECPInt.
 ECPInt:  NShTT=   95703 NPrTT=  282324 LenC2=   83883 LenP2D=  173817.
 LDataN:  DoStor=T MaxTD1= 6 Len=  172
 NBasis=  1047 RedAO= T EigKep=  7.13D-06  NBF=  1047
 NBsUse=  1047 1.00D-06 EigRej= -1.00D+00 NBFU=  1047
 Precomputing XC quadrature grid using
 IXCGrd= 4 IRadAn=           5 IRanWt=          -1 IRanGd=           0 AccXCQ= 0.00D+00.
 Generated NRdTot=       0 NPtTot=           0 NUsed=           0 NTot=          32
 NSgBfM=  1165  1164  1164  1165  1165 MxSgAt=    62 MxSgA2=    62.
 Leave Link  302 at Wed Jan  8 06:34:57 2025, MaxMem=  4026531840 cpu:              82.8 elap:               5.6
 (Enter /usr/local/intel/g16/l303.exe)
 DipDrv:  MaxL=1.
 Leave Link  303 at Wed Jan  8 06:34:59 2025, MaxMem=  4026531840 cpu:               7.9 elap:               1.9
 (Enter /usr/local/intel/g16/l401.exe)
 ExpMin= 9.52D-02 ExpMax= 2.70D+04 ExpMxC= 9.22D+02 IAcc=3 IRadAn=         5 AccDes= 0.00D+00
 Harris functional with IExCor= 1009 and IRadAn=       5 diagonalized for initial guess.
 HarFok:  IExCor= 1009 AccDes= 0.00D+00 IRadAn=         5 IDoV= 1 UseB2=F ITyADJ=14
 ICtDFT=  3500011 ScaDFX=  1.000000  1.000000  1.000000  1.000000
 FoFCou: FMM=F IPFlag=           0 FMFlag=      100000 FMFlg1=        2001
         NFxFlg=           0 DoJE=T BraDBF=F KetDBF=T FulRan=T
         wScrn=  0.000000 ICntrl=       500 IOpCl=  0 I1Cent=   200000004 NGrid=           0
         NMat0=    1 NMatS0=      1 NMatT0=    0 NMatD0=    1 NMtDS0=    0 NMtDT0=    0
 Petite list used in FoFCou.
 Harris En= -1103.18864557752    
 JPrj=0 DoOrth=F DoCkMO=F.
 Leave Link  401 at Wed Jan  8 06:35:13 2025, MaxMem=  4026531840 cpu:             257.6 elap:              12.9
 (Enter /usr/local/intel/g16/l502.exe)
 Integral symmetry usage will be decided dynamically.
 Closed shell SCF:
 Using DIIS extrapolation, IDIIS=  1040.
 NGot=  4026531840 LenX=  4023701862 LenY=  4022303556
 Requested convergence on RMS density matrix=1.00D-08 within 128 cycles.
 Requested convergence on MAX density matrix=1.00D-06.
 Requested convergence on             energy=1.00D-06.
 No special actions if energy rises.
 Fock matrices will be formed incrementally for  20 cycles.
 Integral accuracy reduced to 1.0D-05 until final iterations.

 Cycle   1  Pass 0  IDiag  1:
 FoFJK:  IHMeth= 1 ICntrl=       0 DoSepK=F KAlg= 0 I1Cent=           0 FoldK=F
 IRaf= 920000000 NMat=       1 IRICut=       1 DoRegI=T DoRafI=F ISym2E= 0 IDoP0=0 IntGTp=1.
 FoFCou: FMM=T IPFlag=           0 FMFlag=      100000 FMFlg1=        2001
         NFxFlg=           0 DoJE=F BraDBF=F KetDBF=F FulRan=T
         wScrn=  0.000000 ICntrl=         0 IOpCl=  0 I1Cent=           0 NGrid=           0
         NMat0=    1 NMatS0=      1 NMatT0=    0 NMatD0=    1 NMtDS0=    0 NMtDT0=    0
 Symmetry not used in FoFCou.
 FMM levels:  10  Number of levels for PrismC:   9
 E= -1102.74894045819    
 DIIS: error= 1.80D-02 at cycle   1 NSaved=   1.
 NSaved= 1 IEnMin= 1 EnMin= -1102.74894045819     IErMin= 1 ErrMin= 1.80D-02
 ErrMax= 1.80D-02  0.00D+00 EMaxC= 1.00D-01 BMatC= 9.31D-01 BMatP= 9.31D-01
 IDIUse=3 WtCom= 8.20D-01 WtEn= 1.80D-01
 Coeff-Com:  0.100D+01
 Coeff-En:   0.100D+01
 Coeff:      0.100D+01
 Gap=     0.352 Goal=   None    Shift=    0.000
 GapD=    0.352 DampG=1.000 DampE=0.500 DampFc=0.5000 IDamp=-1.
 Damping current iteration by 5.00D-01
 RMSDP=9.79D+01 MaxDP=9.48D+03              OVMax= 9.96D-01

 Problem detected with inexpensive integrals.
 Switching to full accuracy and repeating last cycle.
 Cycle   2  Pass 1  IDiag  1:
 E= -1102.74911199519     Delta-E=       -0.000171536994 Rises=F Damp=F
 DIIS: error= 1.80D-02 at cycle   1 NSaved=   1.
 NSaved= 1 IEnMin= 1 EnMin= -1102.74911199519     IErMin= 1 ErrMin= 1.80D-02
 ErrMax= 1.80D-02  0.00D+00 EMaxC= 1.00D-01 BMatC= 9.31D-01 BMatP= 9.31D-01
 IDIUse=3 WtCom= 8.20D-01 WtEn= 1.80D-01
 Coeff-Com:  0.100D+01
 Coeff-En:   0.100D+01
 Coeff:      0.100D+01
 Gap=     0.352 Goal=   None    Shift=    0.000
 GapD=    0.352 DampG=1.000 DampE=0.500 DampFc=0.5000 IDamp=-1.
 Damping current iteration by 5.00D-01
 RMSDP=1.94D-03 MaxDP=1.45D-01 DE=-1.72D-04 OVMax= 1.41D-01

 Cycle   3  Pass 1  IDiag  1:
 RMSU=  9.46D-04    CP:  9.55D-01
 E= -1103.18011938766     Delta-E=       -0.431007392470 Rises=F Damp=T
 DIIS: error= 4.03D-03 at cycle   2 NSaved=   2.
 NSaved= 2 IEnMin= 2 EnMin= -1103.18011938766     IErMin= 2 ErrMin= 4.03D-03
 ErrMax= 4.03D-03  0.00D+00 EMaxC= 1.00D-01 BMatC= 6.57D-02 BMatP= 9.31D-01
 IDIUse=3 WtCom= 9.60D-01 WtEn= 4.03D-02
 Coeff-Com: -0.141D+00 0.114D+01
 Coeff-En:   0.000D+00 0.100D+01
 Coeff:     -0.136D+00 0.114D+01
 Gap=     0.367 Goal=   None    Shift=    0.000
 GapD=    0.367 DampG=1.000 DampE=1.000 DampFc=1.0000 IDamp=-1.
 RMSDP=9.96D-04 MaxDP=7.41D-02 DE=-4.31D-01 OVMax= 7.34D-02

 Cycle   4  Pass 1  IDiag  1:
 RMSU=  9.34D-04    CP:  9.29D-01  1.34D+00
 E= -1103.57318114527     Delta-E=       -0.393061757617 Rises=F Damp=F
 DIIS: error= 2.30D-03 at cycle   3 NSaved=   3.
 NSaved= 3 IEnMin= 3 EnMin= -1103.57318114527     IErMin= 3 ErrMin= 2.30D-03
 ErrMax= 2.30D-03  0.00D+00 EMaxC= 1.00D-01 BMatC= 9.90D-03 BMatP= 6.57D-02
 IDIUse=3 WtCom= 9.77D-01 WtEn= 2.30D-02
 Coeff-Com: -0.847D-01 0.301D+00 0.783D+00
 Coeff-En:   0.000D+00 0.000D+00 0.100D+01
 Coeff:     -0.827D-01 0.294D+00 0.788D+00
 Gap=     0.295 Goal=   None    Shift=    0.000
 RMSDP=1.59D-04 MaxDP=1.73D-02 DE=-3.93D-01 OVMax= 1.68D-02

 Cycle   5  Pass 1  IDiag  1:
 RMSU=  1.45D-04    CP:  9.25D-01  1.38D+00  9.42D-01
 E= -1103.58086094607     Delta-E=       -0.007679800793 Rises=F Damp=F
 DIIS: error= 8.70D-04 at cycle   4 NSaved=   4.
 NSaved= 4 IEnMin= 4 EnMin= -1103.58086094607     IErMin= 4 ErrMin= 8.70D-04
 ErrMax= 8.70D-04  0.00D+00 EMaxC= 1.00D-01 BMatC= 1.90D-03 BMatP= 9.90D-03
 IDIUse=3 WtCom= 9.91D-01 WtEn= 8.70D-03
 Coeff-Com: -0.311D-01 0.811D-01 0.362D+00 0.588D+00
 Coeff-En:   0.000D+00 0.000D+00 0.311D-01 0.969D+00
 Coeff:     -0.308D-01 0.804D-01 0.359D+00 0.591D+00
 Gap=     0.290 Goal=   None    Shift=    0.000
 RMSDP=5.23D-05 MaxDP=6.31D-03 DE=-7.68D-03 OVMax= 9.48D-03

 Cycle   6  Pass 1  IDiag  1:
 RMSU=  3.74D-05    CP:  9.25D-01  1.38D+00  9.56D-01  7.66D-01
 E= -1103.58243879215     Delta-E=       -0.001577846079 Rises=F Damp=F
 DIIS: error= 2.76D-04 at cycle   5 NSaved=   5.
 NSaved= 5 IEnMin= 5 EnMin= -1103.58243879215     IErMin= 5 ErrMin= 2.76D-04
 ErrMax= 2.76D-04  0.00D+00 EMaxC= 1.00D-01 BMatC= 1.06D-04 BMatP= 1.90D-03
 IDIUse=3 WtCom= 9.97D-01 WtEn= 2.76D-03
 Coeff-Com: -0.611D-02 0.114D-01 0.887D-01 0.246D+00 0.660D+00
 Coeff-En:   0.000D+00 0.000D+00 0.000D+00 0.000D+00 0.100D+01
 Coeff:     -0.609D-02 0.113D-01 0.884D-01 0.245D+00 0.661D+00
 Gap=     0.291 Goal=   None    Shift=    0.000
 RMSDP=1.55D-05 MaxDP=1.05D-03 DE=-1.58D-03 OVMax= 3.40D-03

 Cycle   7  Pass 1  IDiag  1:
 RMSU=  1.38D-05    CP:  9.25D-01  1.38D+00  9.58D-01  7.92D-01  8.60D-01
 E= -1103.58253094275     Delta-E=       -0.000092150603 Rises=F Damp=F
 DIIS: error= 1.04D-04 at cycle   6 NSaved=   6.
 NSaved= 6 IEnMin= 6 EnMin= -1103.58253094275     IErMin= 6 ErrMin= 1.04D-04
 ErrMax= 1.04D-04  0.00D+00 EMaxC= 1.00D-01 BMatC= 9.32D-06 BMatP= 1.06D-04
 IDIUse=3 WtCom= 9.99D-01 WtEn= 1.04D-03
 Coeff-Com: -0.759D-03 0.518D-04 0.181D-01 0.750D-01 0.299D+00 0.609D+00
 Coeff-En:   0.000D+00 0.000D+00 0.000D+00 0.000D+00 0.000D+00 0.100D+01
 Coeff:     -0.758D-03 0.517D-04 0.181D-01 0.750D-01 0.298D+00 0.609D+00
 Gap=     0.291 Goal=   None    Shift=    0.000
 RMSDP=4.88D-06 MaxDP=7.83D-04 DE=-9.22D-05 OVMax= 1.29D-03

 Cycle   8  Pass 1  IDiag  1:
 RMSU=  4.12D-06    CP:  9.25D-01  1.38D+00  9.59D-01  7.88D-01  9.22D-01
                    CP:  9.53D-01
 E= -1103.58253979209     Delta-E=       -0.000008849339 Rises=F Damp=F
 DIIS: error= 3.32D-05 at cycle   7 NSaved=   7.
 NSaved= 7 IEnMin= 7 EnMin= -1103.58253979209     IErMin= 7 ErrMin= 3.32D-05
 ErrMax= 3.32D-05  0.00D+00 EMaxC= 1.00D-01 BMatC= 1.17D-06 BMatP= 9.32D-06
 IDIUse=1 WtCom= 1.00D+00 WtEn= 0.00D+00
 Coeff-Com:  0.975D-03-0.240D-02-0.106D-01-0.188D-01-0.763D-02 0.262D+00
 Coeff-Com:  0.776D+00
 Coeff:      0.975D-03-0.240D-02-0.106D-01-0.188D-01-0.763D-02 0.262D+00
 Coeff:      0.776D+00
 Gap=     0.291 Goal=   None    Shift=    0.000
 RMSDP=2.15D-06 MaxDP=2.74D-04 DE=-8.85D-06 OVMax= 3.48D-04

 Cycle   9  Pass 1  IDiag  1:
 RMSU=  1.49D-06    CP:  9.25D-01  1.38D+00  9.59D-01  7.93D-01  9.36D-01
                    CP:  1.03D+00  8.46D-01
 E= -1103.58254106085     Delta-E=       -0.000001268763 Rises=F Damp=F
 DIIS: error= 4.81D-06 at cycle   8 NSaved=   8.
 NSaved= 8 IEnMin= 8 EnMin= -1103.58254106085     IErMin= 8 ErrMin= 4.81D-06
 ErrMax= 4.81D-06  0.00D+00 EMaxC= 1.00D-01 BMatC= 6.72D-08 BMatP= 1.17D-06
 IDIUse=1 WtCom= 1.00D+00 WtEn= 0.00D+00
 Coeff-Com:  0.391D-03-0.886D-03-0.490D-02-0.108D-01-0.167D-01 0.710D-01
 Coeff-Com:  0.302D+00 0.660D+00
 Coeff:      0.391D-03-0.886D-03-0.490D-02-0.108D-01-0.167D-01 0.710D-01
 Coeff:      0.302D+00 0.660D+00
 Gap=     0.291 Goal=   None    Shift=    0.000
 RMSDP=5.00D-07 MaxDP=4.93D-05 DE=-1.27D-06 OVMax= 6.90D-05

 Cycle  10  Pass 1  IDiag  1:
 RMSU=  3.72D-07    CP:  9.25D-01  1.38D+00  9.59D-01  7.93D-01  9.36D-01
                    CP:  1.03D+00  8.97D-01  9.04D-01
 E= -1103.58254112302     Delta-E=       -0.000000062164 Rises=F Damp=F
 DIIS: error= 1.52D-06 at cycle   9 NSaved=   9.
 NSaved= 9 IEnMin= 9 EnMin= -1103.58254112302     IErMin= 9 ErrMin= 1.52D-06
 ErrMax= 1.52D-06  0.00D+00 EMaxC= 1.00D-01 BMatC= 1.10D-08 BMatP= 6.72D-08
 IDIUse=1 WtCom= 1.00D+00 WtEn= 0.00D+00
 Coeff-Com:  0.588D-04-0.122D-03-0.992D-03-0.282D-02-0.691D-02-0.339D-04
 Coeff-Com:  0.439D-01 0.305D+00 0.662D+00
 Coeff:      0.588D-04-0.122D-03-0.992D-03-0.282D-02-0.691D-02-0.339D-04
 Coeff:      0.439D-01 0.305D+00 0.662D+00
 Gap=     0.291 Goal=   None    Shift=    0.000
 RMSDP=2.00D-07 MaxDP=1.32D-05 DE=-6.22D-08 OVMax= 2.11D-05

 Cycle  11  Pass 1  IDiag  1:
 RMSU=  1.67D-07    CP:  9.25D-01  1.38D+00  9.59D-01  7.93D-01  9.37D-01
                    CP:  1.03D+00  8.93D-01  9.59D-01  9.18D-01
 E= -1103.58254113216     Delta-E=       -0.000000009140 Rises=F Damp=F
 DIIS: error= 4.99D-07 at cycle  10 NSaved=  10.
 NSaved=10 IEnMin=10 EnMin= -1103.58254113216     IErMin=10 ErrMin= 4.99D-07
 ErrMax= 4.99D-07  0.00D+00 EMaxC= 1.00D-01 BMatC= 1.09D-09 BMatP= 1.10D-08
 IDIUse=1 WtCom= 1.00D+00 WtEn= 0.00D+00
 Coeff-Com: -0.139D-04 0.346D-04 0.622D-04-0.114D-03-0.962D-03-0.657D-02
 Coeff-Com: -0.116D-01 0.659D-01 0.286D+00 0.667D+00
 Coeff:     -0.139D-04 0.346D-04 0.622D-04-0.114D-03-0.962D-03-0.657D-02
 Coeff:     -0.116D-01 0.659D-01 0.286D+00 0.667D+00
 Gap=     0.291 Goal=   None    Shift=    0.000
 RMSDP=6.28D-08 MaxDP=1.14D-05 DE=-9.14D-09 OVMax= 1.06D-05

 Cycle  12  Pass 1  IDiag  1:
 RMSU=  5.05D-08    CP:  9.25D-01  1.38D+00  9.59D-01  7.93D-01  9.37D-01
                    CP:  1.03D+00  8.93D-01  9.71D-01  9.90D-01  9.32D-01
 E= -1103.58254113314     Delta-E=       -0.000000000989 Rises=F Damp=F
 DIIS: error= 2.44D-07 at cycle  11 NSaved=  11.
 NSaved=11 IEnMin=11 EnMin= -1103.58254113314     IErMin=11 ErrMin= 2.44D-07
 ErrMax= 2.44D-07  0.00D+00 EMaxC= 1.00D-01 BMatC= 1.36D-10 BMatP= 1.09D-09
 IDIUse=1 WtCom= 1.00D+00 WtEn= 0.00D+00
 Coeff-Com: -0.124D-04 0.290D-04 0.144D-03 0.283D-03 0.458D-03-0.245D-02
 Coeff-Com: -0.966D-02-0.128D-01 0.214D-01 0.274D+00 0.728D+00
 Coeff:     -0.124D-04 0.290D-04 0.144D-03 0.283D-03 0.458D-03-0.245D-02
 Coeff:     -0.966D-02-0.128D-01 0.214D-01 0.274D+00 0.728D+00
 Gap=     0.291 Goal=   None    Shift=    0.000
 RMSDP=2.29D-08 MaxDP=1.12D-06 DE=-9.89D-10 OVMax= 4.12D-06

 Cycle  13  Pass 1  IDiag  1:
 RMSU=  1.60D-08    CP:  9.25D-01  1.38D+00  9.59D-01  7.93D-01  9.37D-01
                    CP:  1.03D+00  8.92D-01  9.77D-01  9.97D-01  1.01D+00
                    CP:  9.67D-01
 E= -1103.58254113328     Delta-E=       -0.000000000138 Rises=F Damp=F
 DIIS: error= 6.71D-08 at cycle  12 NSaved=  12.
 NSaved=12 IEnMin=12 EnMin= -1103.58254113328     IErMin=12 ErrMin= 6.71D-08
 ErrMax= 6.71D-08  0.00D+00 EMaxC= 1.00D-01 BMatC= 1.62D-11 BMatP= 1.36D-10
 IDIUse=1 WtCom= 1.00D+00 WtEn= 0.00D+00
 Coeff-Com: -0.266D-05 0.625D-05 0.459D-04 0.114D-03 0.269D-03-0.260D-03
 Coeff-Com: -0.258D-02-0.124D-01-0.258D-01 0.363D-01 0.297D+00 0.707D+00
 Coeff:     -0.266D-05 0.625D-05 0.459D-04 0.114D-03 0.269D-03-0.260D-03
 Coeff:     -0.258D-02-0.124D-01-0.258D-01 0.363D-01 0.297D+00 0.707D+00
 Gap=     0.291 Goal=   None    Shift=    0.000
 RMSDP=7.97D-09 MaxDP=4.33D-07 DE=-1.38D-10 OVMax= 1.82D-06

 SCF Done:  E(RM062X) =  -1103.58254113     A.U. after   13 cycles
            NFock= 13  Conv=0.80D-08     -V/T= 2.0061
 KE= 1.096874649220D+03 PE=-7.943383195894D+03 EE= 3.051718852929D+03
 Leave Link  502 at Wed Jan  8 07:05:14 2025, MaxMem=  4026531840 cpu:           35923.3 elap:            1799.1
 (Enter /usr/local/intel/g16/l601.exe)
 Copying SCF densities to generalized density rwf, IOpCl= 0 IROHF=0.

 **********************************************************************

            Population analysis using the SCF Density.

 **********************************************************************

 Orbital symmetries:
       Occupied  (A) (A) (A) (A) (A) (A) (A) (A) (A) (A) (A) (A)
                 (A) (A) (A) (A) (A) (A) (A) (A) (A) (A) (A) (A)
                 (A) (A) (A) (A) (A) (A) (A) (A) (A) (A) (A) (A)
                 (A) (A) (A) (A) (A) (A) (A) (A) (A) (A) (A) (A)
                 (A) (A) (A) (A) (A) (A) (A) (A) (A) (A) (A) (A)
                 (A) (A) (A) (A) (A) (A) (A) (A) (A) (A) (A) (A)
                 (A) (A) (A) (A) (A) (A) (A) (A) (A) (A) (A) (A)
                 (A) (A) (A) (A) (A) (A) (A) (A) (A) (A) (A) (A)
                 (A) (A) (A) (A)
       Virtual   (A) (A) (A) (A) (A) (A) (A) (A) (A) (A) (A) (A)
                 (A) (A) (A) (A) (A) (A) (A) (A) (A) (A) (A) (A)
                 (A) (A) (A) (A) (A) (A) (A) (A) (A) (A) (A) (A)
                 (A) (A) (A) (A) (A) (A) (A) (A) (A) (A) (A) (A)
                 (A) (A) (A) (A) (A) (A) (A) (A) (A) (A) (A) (A)
                 (A) (A) (A) (A) (A) (A) (A) (A) (A) (A) (A) (A)
                 (A) (A) (A) (A) (A) (A) (A) (A) (A) (A) (A) (A)
                 (A) (A) (A) (A) (A) (A) (A) (A) (A) (A) (A) (A)
                 (A) (A) (A) (A) (A) (A) (A) (A) (A) (A) (A) (A)
                 (A) (A) (A) (A) (A) (A) (A) (A) (A) (A) (A) (A)
                 (A) (A) (A) (A) (A) (A) (A) (A) (A) (A) (A) (A)
                 (A) (A) (A) (A) (A) (A) (A) (A) (A) (A) (A) (A)
                 (A) (A) (A) (A) (A) (A) (A) (A) (A) (A) (A) (A)
                 (A) (A) (A) (A) (A) (A) (A) (A) (A) (A) (A) (A)
                 (A) (A) (A) (A) (A) (A) (A) (A) (A) (A) (A) (A)
                 (A) (A) (A) (A) (A) (A) (A) (A) (A) (A) (A) (A)
                 (A) (A) (A) (A) (A) (A) (A) (A) (A) (A) (A) (A)
                 (A) (A) (A) (A) (A) (A) (A) (A) (A) (A) (A) (A)
                 (A) (A) (A) (A) (A) (A) (A) (A) (A) (A) (A) (A)
                 (A) (A) (A) (A) (A) (A) (A) (A) (A) (A) (A) (A)
                 (A) (A) (A) (A) (A) (A) (A) (A) (A) (A) (A) (A)
                 (A) (A) (A) (A) (A) (A) (A) (A) (A) (A) (A) (A)
                 (A) (A) (A) (A) (A) (A) (A) (A) (A) (A) (A) (A)
                 (A) (A) (A) (A) (A) (A) (A) (A) (A) (A) (A) (A)
                 (A) (A) (A) (A) (A) (A) (A) (A) (A) (A) (A) (A)
                 (A) (A) (A) (A) (A) (A) (A) (A) (A) (A) (A) (A)
                 (A) (A) (A) (A) (A) (A) (A) (A) (A) (A) (A) (A)
                 (A) (A) (A) (A) (A) (A) (A) (A) (A) (A) (A) (A)
                 (A) (A) (A) (A) (A) (A) (A) (A) (A) (A) (A) (A)
                 (A) (A) (A) (A) (A) (A) (A) (A) (A) (A) (A) (A)
                 (A) (A) (A) (A) (A) (A) (A) (A) (A) (A) (A) (A)
                 (A) (A) (A) (A) (A) (A) (A) (A) (A) (A) (A) (A)
                 (A) (A) (A) (A) (A) (A) (A) (A) (A) (A) (A) (A)
                 (A) (A) (A) (A) (A) (A) (A) (A) (A) (A) (A) (A)
                 (A) (A) (A) (A) (A) (A) (A) (A) (A) (A) (A) (A)
                 (A) (A) (A) (A) (A) (A) (A) (A) (A) (A) (A) (A)
                 (A) (A) (A) (A) (A) (A) (A) (A) (A) (A) (A) (A)
                 (A) (A) (A) (A) (A) (A) (A) (A) (A) (A) (A) (A)
                 (A) (A) (A) (A) (A) (A) (A) (A) (A) (A) (A) (A)
                 (A) (A) (A) (A) (A) (A) (A) (A) (A) (A) (A) (A)
                 (A) (A) (A) (A) (A) (A) (A) (A) (A) (A) (A) (A)
                 (A) (A) (A) (A) (A) (A) (A) (A) (A) (A) (A) (A)
                 (A) (A) (A) (A) (A) (A) (A) (A) (A) (A) (A) (A)
                 (A) (A) (A) (A) (A) (A) (A) (A) (A) (A) (A) (A)
                 (A) (A) (A) (A) (A) (A) (A) (A) (A) (A) (A) (A)
                 (A) (A) (A) (A) (A) (A) (A) (A) (A) (A) (A) (A)
                 (A) (A) (A) (A) (A) (A) (A) (A) (A) (A) (A) (A)
                 (A) (A) (A) (A) (A) (A) (A) (A) (A) (A) (A) (A)
                 (A) (A) (A) (A) (A) (A) (A) (A) (A) (A) (A) (A)
                 (A) (A) (A) (A) (A) (A) (A) (A) (A) (A) (A) (A)
                 (A) (A) (A) (A) (A) (A) (A) (A) (A) (A) (A) (A)
                 (A) (A) (A) (A) (A) (A) (A) (A) (A) (A) (A) (A)
                 (A) (A) (A) (A) (A) (A) (A) (A) (A) (A) (A) (A)
                 (A) (A) (A) (A) (A) (A) (A) (A) (A) (A) (A) (A)
                 (A) (A) (A) (A) (A) (A) (A) (A) (A) (A) (A) (A)
                 (A) (A) (A) (A) (A) (A) (A) (A) (A) (A) (A) (A)
                 (A) (A) (A) (A) (A) (A) (A) (A) (A) (A) (A) (A)
                 (A) (A) (A) (A) (A) (A) (A) (A) (A) (A) (A) (A)
                 (A) (A) (A) (A) (A) (A) (A) (A) (A) (A) (A) (A)
                 (A) (A) (A) (A) (A) (A) (A) (A) (A) (A) (A) (A)
                 (A) (A) (A) (A) (A) (A) (A) (A) (A) (A) (A) (A)
                 (A) (A) (A) (A) (A) (A) (A) (A) (A) (A) (A) (A)
                 (A) (A) (A) (A) (A) (A) (A) (A) (A) (A) (A) (A)
                 (A) (A) (A) (A) (A) (A) (A) (A) (A) (A) (A) (A)
                 (A) (A) (A) (A) (A) (A) (A) (A) (A) (A) (A) (A)
                 (A) (A) (A) (A) (A) (A) (A) (A) (A) (A) (A) (A)
                 (A) (A) (A) (A) (A) (A) (A) (A) (A) (A) (A) (A)
                 (A) (A) (A) (A) (A) (A) (A) (A) (A) (A) (A) (A)
                 (A) (A) (A) (A) (A) (A) (A) (A) (A) (A) (A) (A)
                 (A) (A) (A) (A) (A) (A) (A) (A) (A) (A) (A) (A)
                 (A) (A) (A) (A) (A) (A) (A) (A) (A) (A) (A) (A)
                 (A) (A) (A) (A) (A) (A) (A) (A) (A) (A) (A) (A)
                 (A) (A) (A) (A) (A) (A) (A) (A) (A) (A) (A) (A)
                 (A) (A) (A) (A) (A) (A) (A) (A) (A) (A) (A) (A)
                 (A) (A) (A) (A) (A) (A) (A) (A) (A) (A) (A) (A)
                 (A) (A) (A) (A) (A) (A) (A) (A) (A) (A) (A) (A)
                 (A) (A) (A) (A) (A) (A) (A) (A) (A) (A) (A) (A)
                 (A) (A) (A) (A) (A) (A) (A) (A) (A) (A) (A) (A)
                 (A) (A) (A) (A) (A) (A) (A) (A) (A) (A) (A)
 The electronic state is 1-A.
 Alpha  occ. eigenvalues --  -19.64400 -14.77927 -10.58829 -10.57087 -10.56831
 Alpha  occ. eigenvalues --  -10.55010 -10.54582 -10.54553 -10.54538 -10.54460
 Alpha  occ. eigenvalues --  -10.54398 -10.54304 -10.54300 -10.54271 -10.54232
 Alpha  occ. eigenvalues --  -10.54192 -10.54136 -10.54023 -10.53702 -10.52779
 Alpha  occ. eigenvalues --  -10.52730 -10.52687 -10.52580 -10.51405 -10.51302
 Alpha  occ. eigenvalues --  -10.51162 -10.50666  -1.15938  -0.98172  -0.95995
 Alpha  occ. eigenvalues --   -0.95370  -0.90787  -0.89688  -0.87595  -0.85289
 Alpha  occ. eigenvalues --   -0.83916  -0.83815  -0.82475  -0.81323  -0.79010
 Alpha  occ. eigenvalues --   -0.77267  -0.76039  -0.75670  -0.72565  -0.70292
 Alpha  occ. eigenvalues --   -0.68834  -0.68203  -0.68139  -0.65499  -0.64756
 Alpha  occ. eigenvalues --   -0.63575  -0.59901  -0.58699  -0.58054  -0.56126
 Alpha  occ. eigenvalues --   -0.54700  -0.53936  -0.53282  -0.52400  -0.52239
 Alpha  occ. eigenvalues --   -0.52060  -0.51036  -0.50443  -0.49937  -0.49274
 Alpha  occ. eigenvalues --   -0.48820  -0.48377  -0.48152  -0.47624  -0.47549
 Alpha  occ. eigenvalues --   -0.46939  -0.46020  -0.45823  -0.44853  -0.44147
 Alpha  occ. eigenvalues --   -0.43793  -0.43568  -0.43064  -0.42994  -0.42618
 Alpha  occ. eigenvalues --   -0.42266  -0.41454  -0.41217  -0.40756  -0.40696
 Alpha  occ. eigenvalues --   -0.39936  -0.39464  -0.38811  -0.38083  -0.37787
 Alpha  occ. eigenvalues --   -0.37539  -0.37344  -0.36154  -0.34772  -0.33252
 Alpha  occ. eigenvalues --   -0.30590  -0.30486  -0.29968  -0.29569  -0.27642
 Alpha virt. eigenvalues --    0.01454   0.01697   0.01966   0.02177   0.05901
 Alpha virt. eigenvalues --    0.06859   0.07904   0.07991   0.08683   0.09303
 Alpha virt. eigenvalues --    0.09642   0.09714   0.10072   0.10659   0.11103
 Alpha virt. eigenvalues --    0.11574   0.12168   0.12499   0.12687   0.13251
 Alpha virt. eigenvalues --    0.13484   0.13901   0.14188   0.14551   0.14904
 Alpha virt. eigenvalues --    0.15106   0.15240   0.15560   0.16028   0.16297
 Alpha virt. eigenvalues --    0.16381   0.17167   0.17491   0.17595   0.17881
 Alpha virt. eigenvalues --    0.18195   0.18573   0.19062   0.19205   0.19419
 Alpha virt. eigenvalues --    0.19728   0.20026   0.20587   0.20825   0.21103
 Alpha virt. eigenvalues --    0.21528   0.21935   0.22675   0.23039   0.23348
 Alpha virt. eigenvalues --    0.23490   0.23773   0.23874   0.24080   0.24582
 Alpha virt. eigenvalues --    0.25197   0.25350   0.25713   0.26082   0.26204
 Alpha virt. eigenvalues --    0.26797   0.27165   0.27367   0.27659   0.28059
 Alpha virt. eigenvalues --    0.28402   0.29335   0.29419   0.29799   0.30070
 Alpha virt. eigenvalues --    0.30347   0.30745   0.31193   0.31507   0.31905
 Alpha virt. eigenvalues --    0.32108   0.32596   0.32689   0.33693   0.34059
 Alpha virt. eigenvalues --    0.34465   0.34865   0.35076   0.35129   0.35431
 Alpha virt. eigenvalues --    0.35478   0.36142   0.36647   0.36850   0.37582
 Alpha virt. eigenvalues --    0.37957   0.38315   0.38445   0.38850   0.39554
 Alpha virt. eigenvalues --    0.40044   0.40327   0.40581   0.40924   0.41069
 Alpha virt. eigenvalues --    0.41443   0.41458   0.41930   0.42224   0.42403
 Alpha virt. eigenvalues --    0.42647   0.43466   0.43860   0.43963   0.44276
 Alpha virt. eigenvalues --    0.44452   0.44716   0.44941   0.45034   0.45627
 Alpha virt. eigenvalues --    0.45700   0.45879   0.46013   0.46471   0.46746
 Alpha virt. eigenvalues --    0.47140   0.47260   0.47732   0.48362   0.48393
 Alpha virt. eigenvalues --    0.48693   0.48721   0.49005   0.49342   0.49755
 Alpha virt. eigenvalues --    0.49832   0.49946   0.50200   0.50551   0.50944
 Alpha virt. eigenvalues --    0.51090   0.51588   0.51965   0.52231   0.52470
 Alpha virt. eigenvalues --    0.52950   0.53031   0.53412   0.53722   0.54033
 Alpha virt. eigenvalues --    0.54168   0.54761   0.54797   0.55457   0.55617
 Alpha virt. eigenvalues --    0.55785   0.56141   0.56344   0.57013   0.57101
 Alpha virt. eigenvalues --    0.57633   0.57676   0.58574   0.58997   0.59071
 Alpha virt. eigenvalues --    0.59635   0.59876   0.60561   0.60691   0.61664
 Alpha virt. eigenvalues --    0.61804   0.62590   0.63091   0.63348   0.63844
 Alpha virt. eigenvalues --    0.64049   0.64428   0.65153   0.65631   0.66501
 Alpha virt. eigenvalues --    0.66858   0.67491   0.67877   0.68670   0.69400
 Alpha virt. eigenvalues --    0.70115   0.70565   0.70980   0.71805   0.72387
 Alpha virt. eigenvalues --    0.72768   0.72942   0.73095   0.73381   0.74399
 Alpha virt. eigenvalues --    0.74778   0.75062   0.75321   0.75943   0.76717
 Alpha virt. eigenvalues --    0.77599   0.77880   0.78154   0.79112   0.79463
 Alpha virt. eigenvalues --    0.79882   0.80079   0.80696   0.81250   0.81708
 Alpha virt. eigenvalues --    0.82175   0.82690   0.84199   0.84562   0.85153
 Alpha virt. eigenvalues --    0.85695   0.86392   0.86578   0.87327   0.87960
 Alpha virt. eigenvalues --    0.88543   0.88771   0.89259   0.89476   0.90071
 Alpha virt. eigenvalues --    0.90319   0.91181   0.91823   0.91956   0.92542
 Alpha virt. eigenvalues --    0.92925   0.93191   0.94098   0.94232   0.94732
 Alpha virt. eigenvalues --    0.95564   0.95997   0.97026   0.97218   0.97591
 Alpha virt. eigenvalues --    0.98004   0.98551   0.98900   0.99706   1.00070
 Alpha virt. eigenvalues --    1.00945   1.02295   1.02569   1.03167   1.03525
 Alpha virt. eigenvalues --    1.04179   1.04641   1.05285   1.06022   1.06468
 Alpha virt. eigenvalues --    1.07066   1.07843   1.08310   1.08880   1.09248
 Alpha virt. eigenvalues --    1.09605   1.10000   1.10418   1.11167   1.11470
 Alpha virt. eigenvalues --    1.12107   1.12616   1.13633   1.14151   1.14966
 Alpha virt. eigenvalues --    1.15178   1.15957   1.16894   1.17258   1.17550
 Alpha virt. eigenvalues --    1.17761   1.18533   1.18953   1.19699   1.20311
 Alpha virt. eigenvalues --    1.20430   1.20817   1.21916   1.22344   1.22598
 Alpha virt. eigenvalues --    1.23076   1.24099   1.24216   1.24774   1.25399
 Alpha virt. eigenvalues --    1.26238   1.26525   1.27009   1.27443   1.27697
 Alpha virt. eigenvalues --    1.28367   1.29034   1.29415   1.29937   1.30115
 Alpha virt. eigenvalues --    1.30721   1.30824   1.31369   1.32357   1.32636
 Alpha virt. eigenvalues --    1.33189   1.33759   1.34006   1.34687   1.35738
 Alpha virt. eigenvalues --    1.36201   1.36253   1.36797   1.37430   1.38266
 Alpha virt. eigenvalues --    1.38690   1.39167   1.39889   1.40512   1.41458
 Alpha virt. eigenvalues --    1.42513   1.43328   1.44075   1.44655   1.45142
 Alpha virt. eigenvalues --    1.45360   1.46105   1.46621   1.46710   1.47227
 Alpha virt. eigenvalues --    1.48051   1.48682   1.49736   1.50072   1.51032
 Alpha virt. eigenvalues --    1.51329   1.51891   1.52888   1.54451   1.55013
 Alpha virt. eigenvalues --    1.56075   1.56299   1.56508   1.57913   1.58232
 Alpha virt. eigenvalues --    1.59056   1.59285   1.59638   1.59981   1.60480
 Alpha virt. eigenvalues --    1.60751   1.61224   1.62230   1.62350   1.62781
 Alpha virt. eigenvalues --    1.63759   1.64072   1.64705   1.64727   1.65633
 Alpha virt. eigenvalues --    1.66050   1.66337   1.66784   1.67113   1.67263
 Alpha virt. eigenvalues --    1.67690   1.68646   1.68963   1.69389   1.69879
 Alpha virt. eigenvalues --    1.69990   1.70529   1.70764   1.71315   1.71845
 Alpha virt. eigenvalues --    1.72177   1.72739   1.72872   1.73372   1.73664
 Alpha virt. eigenvalues --    1.73815   1.74109   1.74426   1.75267   1.75839
 Alpha virt. eigenvalues --    1.75896   1.76482   1.76979   1.77344   1.77675
 Alpha virt. eigenvalues --    1.78600   1.78782   1.79918   1.80530   1.81073
 Alpha virt. eigenvalues --    1.81428   1.81850   1.82824   1.83917   1.84191
 Alpha virt. eigenvalues --    1.85722   1.85864   1.86361   1.87261   1.88525
 Alpha virt. eigenvalues --    1.89118   1.89678   1.90111   1.90339   1.91163
 Alpha virt. eigenvalues --    1.91243   1.92183   1.93496   1.93619   1.93846
 Alpha virt. eigenvalues --    1.94570   1.96089   1.96820   1.97162   1.97877
 Alpha virt. eigenvalues --    1.98508   1.99650   2.00224   2.00535   2.01411
 Alpha virt. eigenvalues --    2.02067   2.02609   2.02920   2.03867   2.04410
 Alpha virt. eigenvalues --    2.05462   2.06440   2.06633   2.07589   2.08049
 Alpha virt. eigenvalues --    2.08558   2.09441   2.09806   2.10271   2.10800
 Alpha virt. eigenvalues --    2.11558   2.12196   2.12759   2.13016   2.14149
 Alpha virt. eigenvalues --    2.14315   2.14812   2.15439   2.15672   2.16894
 Alpha virt. eigenvalues --    2.17690   2.17891   2.18240   2.19030   2.19417
 Alpha virt. eigenvalues --    2.19690   2.22348   2.22740   2.22978   2.23419
 Alpha virt. eigenvalues --    2.24422   2.25053   2.25372   2.25833   2.26503
 Alpha virt. eigenvalues --    2.27027   2.27364   2.27761   2.28827   2.29464
[...]
 24,0.00005432,0.00030450,-0.00017664,-0.00000045,0.00001317,0.00001671
 ,-0.00000127,0.00000075,0.00000569,0.00000116,0.00000703,-0.00000292,-
 0.00000033,0.00000215,0.00000145,0.00000004,-0.00000348,-0.00000055,0.
 00000124,-0.00000168,-0.00000351,-0.00000106,-0.00000354,0.00000386,0.
 00001192,-0.00001295,-0.00000215,0.00003659,0.00006058,-0.00008854,0.0
 0001180,0.00005297,-0.00002458,0.00001474,0.00004820,-0.00000112,0.000
 01599,0.00001437,0.00003697,0.00013842,0.00007388,-0.00012674,0.000028
 72,-0.00003026,0.00003395,0.00000572,-0.00001259,0.00000332,-0.0000028
 7,-0.00000342,-0.00000110,-0.00000100,0.00000104,0.00000019,0.00000167
 ,-0.00000033,-0.00000077,0.00000061,-0.00000083,0.00000103,-0.00000128
 ,0.00000013,-0.00000034,-0.00000289,0.00000112,0.00000042,0.00000263,0
 .00000155,0.00000473,-0.00000002,0.00000239,0.00000114,0.00005424,-0.0
 0008125,-0.00002804,-0.00002651,-0.00000343,0.00000881,0.00001711,0.00
 003030,-0.00000149,0.00002872,-0.00012257,0.00001360,-0.00187361,0.001
 99273,0.00064667,-0.00010292,-0.00001033,-0.00031161,0.00001838,-0.000
 00664,0.00005028,-0.00005403,0.00020121,-0.00048150,0.00050755,0.00087
 003,0.00196075,0.00398537,-0.01321505,0.02314880,0.00000209,-0.0000001
 4,-0.00006253,-0.00012819,0.00004283,0.00007599,0.00233637,-0.00441897
 ,-0.00145431,0.02666416,-0.10920436,0.11019180,-0.00001989,0.00001972,
 -0.00000081,0.00001342,-0.00000169,-0.00006372,-0.00012402,0.00023550,
 0.00008492,0.00001392,-0.00003430,-0.00003377,0.00007483,-0.00005266,-
 0.00006527,-0.00040746,-0.00042438,-0.00093767,-0.00001725,-0.00000416
 ,0.00000138,0.00002066,0.00001307,-0.00000895,-0.00000063,-0.00000330,
 0.00000872,-0.00001947,0.00009733,0.00002705,-0.00004575,-0.00003383,-
 0.00000100,-0.00000424,0.00005673,-0.00007405,-0.00001767,-0.00001983,
 -0.00041466,0.00028080,-0.00009093,0.00014745,0.00081369,-0.00046995,0
 .00147756,-0.02807610,0.11986399,0.00029097,-0.00012813,-0.00018691,-0
 .00015588,-0.00008707,0.00038270,0.00014768,-0.00029512,-0.00007086,0.
 00037947,-0.00020953,-0.00063925,0.00085067,0.00133954,-0.00037280,0.0
 0121499,0.00096563,-0.00030289,-0.00022452,0.00040187,-0.00021673,0.00
 000590,0.00002797,0.00000106,0.00000333,-0.00001138,0.00000279,-0.0000
 0221,0.00001280,0.00000097,-0.00000013,0.00000044,0.00000421,-0.000000
 27,-0.00000352,0.00000183,0.00000134,-0.00000643,-0.00000258,-0.000003
 41,0.00000422,-0.00000437,0.00000865,-0.00001358,0.00000232,-0.0000188
 3,-0.00001326,-0.00002643,-0.00000932,-0.00004022,0.00001061,-0.000046
 28,-0.00005025,-0.00001359,-0.00001294,0.00001591,0.00003465,-0.000064
 73,-0.00009588,0.00000968,0.00000061,-0.00003846,0.00003827,0.00001614
 ,-0.00002147,0.00000948,-0.00000454,-0.00000427,-0.00000301,-0.0000026
 3,0.,0.00000241,0.00000015,-0.00000015,0.00000076,0.00000226,-0.000000
 41,-0.00000017,0.00000374,-0.00000234,0.00000388,-0.00000655,-0.000004
 07,0.00000259,0.00000404,0.00000155,0.00000256,0.00000044,0.00000765,0
 .00000169,0.00004733,-0.00004243,-0.00001515,-0.00003380,-0.00002729,0
 .00000981,0.00001016,0.00003699,0.00000094,-0.00037684,-0.00006798,0.0
 0017600,0.00005722,-0.00049942,0.00067671,0.00001602,-0.00022379,0.000
 15477,-0.00001085,0.00000418,0.00000798,0.00004927,0.00009090,0.000245
 96,0.00041669,-0.00029492,0.00060782,0.00117233,-0.00373348,0.00403293
 ,-0.00003304,0.00007332,0.00001676,-0.00000771,0.00001424,-0.00004426,
 0.00045691,-0.00008373,0.00050768,-0.04827754,0.11199768,-0.24688798,-
 0.00000053,0.00000248,0.00000242,-0.00000762,0.00000751,0.00000564,0.0
 0005646,-0.00010160,0.00002639,-0.00002058,0.00003543,0.00002675,-0.00
 010604,-0.00007395,-0.00000955,0.00018797,-0.00007903,0.00028701,-0.00
 000156,0.00000018,-0.00000389,0.00000368,0.00000787,0.00000342,-0.0000
 2158,-0.00000925,0.00001931,0.00000269,-0.00002836,0.00000103,0.000024
 23,0.00001268,-0.00000532,-0.00001654,-0.00000681,0.00003156,-0.000174
 86,-0.00030502,0.00039013,0.00011686,-0.00012914,0.00003391,-0.0000439
 3,-0.00018727,0.00026053,0.04922241,-0.12222745,0.26575581,0.00016175,
 -0.00007418,0.00007763,-0.00010824,0.00009429,0.00003312,-0.00034583,-
 0.00006135,-0.00015049,-0.00015144,-0.00104765,0.00092192,-0.00023231,
 -0.00087106,0.00066139,-0.00007316,0.00008234,-0.00019733,-0.00021272,
 -0.00037912,0.00028325,-0.00003073,0.00002610,-0.00004007,0.00000868,0
 .00000834,0.00003195,0.00001364,-0.00000238,-0.00000899,-0.00000066,-0
 .00000084,0.00000753,0.00000425,-0.00000329,-0.00000258,0.00000102,-0.
 00000015,-0.00000071,0.00001034,0.00000256,-0.00001243,0.00001293,-0.0
 0001334,-0.00001268,-0.00002012,-0.00000879,0.00001693,0.00000256,-0.0
 0000264,-0.00000067,0.00000084,0.00010920,-0.00001626,0.00012512,-0.00
 010952,-0.00000065,-0.00000893,0.00000585,0.00001819,0.00006536,0.0000
 7726,-0.00007468,-0.00001665,0.00001316,-0.00001008,-0.00000544,-0.000
 00778,0.00000764,0.00000081,-0.00000005,-0.00000373,0.00000050,-0.0000
 0188,-0.00000208,0.00000007,-0.00000296,-0.00000211,-0.00000458,0.0000
 0146,-0.00000146,0.00000310,0.00000496,0.00000065,0.00001121,0.0000005
 9,0.00000709,-0.00000741,-0.00000183,-0.00000324,-0.00006397,0.0001295
 2,0.00009431,0.00009199,-0.00000014,-0.00004857,0.00005066,-0.00009614
 ,-0.00016645,-0.00222550,0.00069430,0.00069727,0.00093887,-0.00050713,
 -0.00043908,-0.00003981,0.00013603,-0.00003252,0.00014225,-0.00013018,
 -0.00011499,0.00089709,0.00076250,0.00050784,-0.00190495,0.00210364,0.
 00046856,0.00930710,0.01124029,0.01107529,0.00001740,-0.00005683,-0.00
 001788,0.00003728,-0.00002605,-0.00002020,0.00093505,-0.00027106,0.000
 70587,-0.11332977,-0.08413246,-0.08626794,0.00000049,-0.00001507,-0.00
 001166,-0.00000770,-0.00000387,0.00001410,0.00003871,-0.00006318,-0.00
 004780,-0.00016289,0.00028625,0.00017345,0.00018632,0.00031886,-0.0001
 4888,-0.00014800,0.00007757,0.00024426,-0.00001385,-0.00000089,0.00000
 200,-0.00000221,0.00000463,0.00000444,0.00001332,-0.00000223,-0.000018
 27,-0.00000431,-0.00001253,0.00000986,-0.00002192,0.00000350,-0.000005
 59,0.00001426,-0.00001493,0.00000441,-0.00014839,-0.00031698,-0.000069
 23,-0.00009559,-0.00005643,-0.00015577,-0.00004061,-0.00014150,0.00022
 923,-0.00353723,-0.00339568,-0.00222783,0.12288569,0.00020739,-0.00048
 816,0.00010589,-0.00006202,0.00027645,0.00049682,-0.00029476,-0.000044
 79,-0.00039315,-0.00036118,-0.00188268,0.00145249,-0.00032745,-0.00007
 731,0.00045961,0.00002639,0.00003868,-0.00029862,0.00031907,0.00055450
 ,-0.00007274,0.00002642,0.00004365,-0.00004134,0.00002237,-0.00002531,
 -0.00000286,-0.00000359,0.00000522,0.00000615,0.00000063,0.00000006,0.
 00000604,-0.00000085,0.00000164,0.00000860,0.00000331,0.00000029,0.000
 00028,0.00000273,0.00001048,-0.00000071,0.00000213,-0.00001460,0.00000
 745,0.00000943,0.00000049,-0.00002436,-0.00000974,0.00000553,-0.000014
 81,0.00001331,0.00001122,-0.00001583,-0.00017809,-0.00023749,-0.000052
 42,-0.00002547,-0.00001244,-0.00002627,-0.00000577,-0.00010910,0.00007
 954,0.00002373,-0.00002986,0.00001028,-0.00000090,0.00000017,-0.000002
 58,-0.00000256,-0.00000075,0.00000144,-0.00000325,-0.00000076,0.000000
 63,-0.00000357,0.00000080,-0.00000149,0.00000077,-0.00000524,-0.000002
 07,-0.00000741,-0.00000630,0.00000217,0.00000221,0.00000070,-0.0000001
 7,0.00000021,0.00001189,0.00000419,0.00005720,0.00005269,0.00000588,0.
 00000423,-0.00001736,0.00001139,0.00005125,0.00006039,-0.00008743,-0.0
 0107033,0.00121046,0.00116735,-0.00110495,-0.00040210,0.00018715,-0.00
 000657,-0.00002448,-0.00008001,-0.00018292,-0.00008554,0.00017023,-0.0
 0151363,-0.00044080,-0.00098611,0.00457462,-0.00403533,-0.00065955,-0.
 01459814,-0.01729359,-0.01583832,0.00005910,0.00002704,0.00003977,-0.0
 0004683,0.00004196,0.00000588,-0.00069855,0.00115316,-0.00099036,-0.08
 242134,-0.14814313,-0.10360896,0.00009947,0.00003380,-0.00004362,0.000
 00500,0.00001897,-0.00001287,0.00002542,-0.00006362,0.00007041,0.00032
 504,-0.00051530,-0.00024072,0.00015280,0.00020127,0.00016044,0.0000358
 6,0.00017540,-0.00008732,0.00003622,0.00001471,-0.00002266,-0.00000592
 ,-0.00000793,0.00000391,-0.00000579,0.00000207,0.00000691,-0.00001392,
 -0.00002500,-0.00003338,0.00006669,0.00000525,0.00002286,-0.00000549,-
 0.00000151,0.00002273,-0.00024307,-0.00016826,0.00020673,0.00061927,-0
 .00025222,0.00041652,0.00001823,0.00043776,0.00008595,0.00800202,0.009
 78288,0.00950397,0.09155382,0.16520661,0.00036434,0.00011252,0.0000444
 6,0.00010020,0.00006311,-0.00001918,-0.00055940,0.00000239,-0.00009091
 ,0.00016504,0.00013731,0.00036170,0.00009436,-0.00024548,-0.00020761,-
 0.00037049,-0.00000718,-0.00040612,0.00079169,-0.00002950,-0.00016196,
 0.00001818,-0.00005532,0.00001167,0.00000704,-0.00000212,-0.00004742,-
 0.00001077,-0.00001483,0.00001094,0.00000139,0.00000056,-0.00001254,-0
 .00000427,0.00001060,0.00000623,-0.00000050,0.00001161,0.00000567,-0.0
 0000345,-0.00000329,0.00002343,-0.00002904,0.00003316,0.00000502,-0.00
 000186,-0.00003898,0.00005930,0.00002002,-0.00001851,0.00003443,0.0000
 3117,0.00000635,-0.00000316,0.00012409,0.00011841,0.00012648,-0.000034
 82,0.00000110,0.00006871,-0.00006140,0.00001364,0.00001899,-0.00000389
 ,0.00001628,-0.00000040,0.00001110,0.00001541,-0.00000468,0.00000160,-
 0.00000106,0.00000083,-0.00000371,0.00000190,0.00000146,-0.00000719,0.
 00000474,0.00000128,-0.00000233,-0.00000213,-0.00000780,0.00000633,-0.
 00000196,-0.00000317,-0.00001894,-0.00000260,-0.00001246,0.00000555,-0
 .00000542,0.00000671,0.00003049,0.00014688,0.00002385,0.00002516,-0.00
 000383,-0.00000804,0.00009636,0.00001353,-0.00000175,-0.00048777,0.000
 99735,0.00085057,-0.00052962,-0.00100820,-0.00043689,0.00011370,0.0000
 5046,0.00001911,-0.00015768,0.00004460,0.00007095,-0.00049183,-0.00025
 132,0.00047733,0.00132574,-0.00064811,-0.00016461,-0.00320260,-0.00269
 874,-0.00509734,0.00002285,-0.00001778,0.00002291,-0.00000480,-0.00000
 993,-0.00001502,0.00015909,0.00104363,0.00045842,-0.08377761,-0.103184
 38,-0.15093142,0.00004717,0.00000749,-0.00000049,-0.00001075,0.0000165
 7,0.00000846,0.00010791,-0.00017243,-0.00006280,0.00008670,-0.00010286
 ,-0.00002747,-0.00031176,-0.00011899,0.00012578,0.00033974,0.00005573,
 0.00045972,0.00004702,0.00000276,-0.00000837,-0.00001487,-0.00000937,-
 0.00002235,0.00000898,0.00002290,-0.00000501,-0.00000330,0.00004026,-0
 .00001130,0.00001957,-0.00002123,0.00003274,0.00001532,-0.00000113,-0.
 00000651,0.00031566,-0.00015952,0.00003808,-0.00005578,-0.00009649,0.0
 0047225,0.00018009,-0.00000038,-0.00005496,-0.01309717,-0.01739735,-0.
 01509159,0.09154368,0.11324458,0.15946225,0.00018851,-0.00011531,-0.00
 000447,0.00003776,0.00003259,0.00013058,-0.00016021,0.00002837,-0.0000
 6807,0.00001524,-0.00014231,0.00016666,0.00001825,-0.00002415,-0.00004
 552,-0.00001706,0.00014148,-0.00018910,0.00027355,0.00044144,-0.000316
 16,0.00002580,-0.00002320,0.00001071,-0.00000237,-0.00000270,-0.000024
 64,-0.00001497,-0.00000159,-0.00000003,-0.00000254,0.00000382,-0.00001
 357,-0.00000276,-0.00000121,-0.00000299,-0.00000195,-0.00000634,-0.000
 00391,-0.00001528,-0.00001058,0.00001243,-0.00001622,0.00001539,0.0000
 1182,0.00000447,-0.00000817,0.00001111,0.00000795,-0.00000796,0.000013
 75,0.00000912,-0.00003039,-0.00000188,0.00002345,0.00007254,0.00002677
 ,-0.00001067,-0.00000257,-0.00001328,-0.00001628,-0.00003333,0.0000526
 4,0.00000912,-0.00000208,0.00001968,0.00000909,0.00000976,-0.00000353,
 0.00000248,0.00000032,0.00000375,0.00000103,0.00000297,0.00000343,0.00
 000246,0.00000428,0.00000315,0.00000839,0.00000044,0.00000450,-0.00000
 073,-0.00000482,-0.00000262,-0.00001451,0.00000025,-0.00000735,0.00000
 712,-0.00000486,-0.00000011,0.00002275,-0.00003770,0.00004352,-0.00003
 373,-0.00002640,-0.00001183,0.00001828,0.00002226,0.00001011,-0.000235
 85,0.00045170,0.00070028,-0.00205415,0.00339795,0.00083459,-0.00043891
 ,-0.00120547,-0.00019880,0.00000039,-0.00021078,-0.00011835,0.00016450
 ,0.00032887,-0.00021581,0.00034909,-0.00196179,-0.00056184,-0.01467784
 ,-0.00667289,0.00763855,-0.00009686,0.00039041,0.00006175,-0.00007359,
 0.00004664,0.00013981,-0.00012072,-0.00078664,0.00089841,-0.24348189,-
 0.06005272,0.09904839,0.00008354,0.00007205,0.00000379,0.00001344,-0.0
 0000146,-0.00000595,-0.00002168,0.00001113,0.00000575,0.00001195,0.000
 02222,-0.00002332,0.00082334,0.00033662,-0.00007019,-0.00007807,0.0002
 0524,0.00005175,0.00002216,-0.00000336,-0.00001077,0.00002033,-0.00001
 358,-0.00001526,-0.00009559,-0.00000880,0.00010585,0.00001353,0.000085
 82,-0.00003362,0.00001059,-0.00004540,0.00000807,-0.00004775,0.0000836
 2,-0.00007079,0.00034641,0.00045026,-0.00095016,0.00012660,-0.00003620
 ,0.00011229,0.00050422,0.00006731,-0.00031161,0.00700991,0.00172690,-0
 .00285753,-0.01301376,-0.00314225,0.00703028,0.26456111,0.00007926,-0.
 00000355,-0.00005594,0.00009528,0.00016840,0.00014022,-0.00026917,0.00
 013038,-0.00015390,-0.00020861,-0.00025322,0.00037562,-0.00013123,-0.0
 0057674,0.00047181,-0.00037858,-0.00022305,-0.00040729,0.00041248,-0.0
 0019367,0.00000571,0.00001390,-0.00002645,0.00000456,0.00000333,-0.000
 00493,-0.00003140,-0.00000573,-0.00000998,0.00001011,0.00000145,-0.000
 00146,-0.00000526,-0.00000353,0.00000823,0.00000589,-0.00000079,0.0000
 0957,0.00000453,-0.00000131,0.00000267,0.00001203,-0.00001648,0.000018
 75,0.00000162,0.00001164,-0.00001090,0.00001699,0.00001197,-0.00003002
 ,0.00003145,0.00000156,-0.00006942,-0.00000956,0.00005099,0.00008752,0
 .00001411,0.00001124,0.00001765,0.00002882,-0.00000720,0.00000518,0.00
 000403,-0.00000187,0.00000563,-0.00000644,0.00000794,0.00000893,-0.000
 00285,0.00000106,-0.00000068,0.00000073,-0.00000273,0.00000117,0.00000
 094,-0.00000464,0.00000290,0.00000039,-0.00000192,-0.00000203,-0.00000
 507,0.00000293,-0.00000176,0.00000055,-0.00001111,-0.00000115,-0.00000
 767,0.00000470,0.00000085,0.00000643,-0.00000539,0.00005960,-0.0000385
 6,0.00001018,0.00001472,0.00001200,0.00002220,0.00001784,0.00002975,-0
 .00065463,0.00044549,0.00034031,0.00318777,-0.00513851,-0.00258962,0.0
 0107044,0.00078835,-0.00029681,0.00018690,0.00022775,0.00007746,0.0000
 1030,0.00019851,0.00021237,0.00110770,0.00076483,-0.00044037,0.0220483
 2,0.00602444,-0.01112088,0.00014482,-0.00041361,-0.00011289,-0.0000139
 4,-0.00002108,-0.00013068,0.00018537,0.00042124,-0.00058482,-0.0639549
 1,-0.06519938,0.03334028,-0.00006122,-0.00003074,0.00001516,-0.0000100
 3,-0.00000629,-0.00001526,-0.00000593,0.00002766,-0.00000206,-0.000042
 49,0.00005468,0.00003071,-0.00005704,-0.00065426,-0.00012276,-0.000257
 87,0.00013248,0.00002025,0.00000976,-0.00000339,0.00000526,-0.00002563
 ,0.00001469,-0.00001826,0.00011473,0.00006922,-0.00011748,0.00001893,-
 0.00003191,0.00002952,0.00000086,0.00000709,0.00002847,0.00002896,-0.0
 0004455,0.00004651,0.00038693,-0.00026536,0.00047317,0.00002293,-0.000
 05442,-0.00000648,-0.00022370,0.00011654,-0.00010592,-0.01317857,-0.00
 414247,0.00458143,-0.01590491,-0.00497522,0.01009457,0.06617437,0.0725
 3721,0.00033251,-0.00026429,0.00007134,-0.00004935,-0.00000500,0.00023
 091,-0.00013293,-0.00002431,-0.00006458,0.00020595,-0.00023592,-0.0000
 6546,0.00002093,0.00016157,-0.00011507,0.00006804,0.00026877,-0.000094
 75,0.00002883,0.00014196,-0.00016417,-0.00000605,0.00001135,0.00001149
 ,0.00000289,-0.00000020,0.00000117,0.00000482,0.00000380,0.00000020,0.
 00000112,-0.00000063,0.00000609,0.00000024,0.00000110,0.00000410,0.000
 00191,0.00000411,0.00000064,0.00000416,0.00000257,0.00000035,0.0000060
 9,-0.00000541,-0.00000038,-0.00000158,0.00000149,-0.00001890,-0.000004
 34,0.00004265,-0.00000820,0.00000172,0.00002528,0.00000454,0.00003126,
 0.00007821,0.00005290,-0.00001452,-0.00000647,0.00002093,-0.00000802,-
 0.00001716,0.00002068,0.00000522,-0.00000479,-0.00000162,-0.00000454,-
 0.00000343,-0.00000069,-0.00000208,0.00000029,-0.00000088,-0.00000042,
 -0.00000126,-0.00000164,-0.00000246,-0.00000133,-0.00000038,-0.0000035
 5,-0.00000135,-0.00000311,-0.00000104,0.00000076,-0.00000040,0.0000033
 6,-0.00000017,0.00000250,-0.00000115,0.00000142,0.00000096,0.00003916,
 0.00000331,-0.00003591,-0.00000400,-0.00000387,0.00001346,0.00002243,0
 .00002523,0.00001834,-0.00091242,0.00045954,0.00061152,0.00140974,-0.0
 0287080,-0.00126232,0.00037370,0.00043945,0.00054887,0.00004023,0.0002
 1177,0.00004819,-0.00028038,-0.00010778,-0.00003031,0.00050978,0.00052
 138,0.00014837,0.00481177,0.00251899,-0.00487673,0.00000506,-0.0001396
 0,-0.00002714,0.00015201,-0.00015944,-0.00017154,-0.00098065,0.0002235
 2,-0.00024188,0.10010556,0.03145320,-0.09764484,-0.00006716,-0.0000446
 3,0.00002542,-0.00000111,0.00000485,0.00000206,-0.00004205,0.00007214,
 0.00001770,0.00000855,-0.00003177,-0.00000927,-0.00012220,-0.00063951,
 0.00016424,0.00009681,0.00015646,-0.00026428,-0.00000116,-0.00000560,0
 .00000153,-0.00001325,0.00001352,0.00001623,0.00005602,-0.00000125,-0.
 00003482,0.00000274,-0.00002560,0.00003225,-0.00000601,0.00001180,-0.0
 0000169,0.00006093,-0.00006542,0.00006315,-0.00065619,0.00064494,0.000
 09895,-0.00018185,0.00014022,0.00005719,-0.00004765,-0.00012264,0.0000
 1827,0.02365470,0.00556296,-0.00989643,-0.01750897,-0.00433351,0.00961
 356,-0.11101111,-0.03408550,0.10310932\\0.00000186,-0.00000136,-0.0000
 0607,0.00000162,0.00000008,-0.00000674,0.00000061,0.00000204,-0.000004
 58,-0.00000015,0.00000339,-0.00000349,0.00000134,-0.00000374,-0.000004
 81,0.00000163,-0.00000053,-0.00000466,0.00000110,-0.00000099,0.0000014
 7,0.00000032,0.00000391,-0.00000202,-0.00000495,-0.00001131,0.00000644
 ,0.00000713,0.00000113,-0.00000738,-0.00000242,0.00000415,0.00000436,0
 .00000206,-0.00001187,0.00000713,0.00000483,-0.00000267,-0.00000277,-0
 .00000308,0.00000601,0.00000711,-0.00000199,-0.00000015,0.00000148,0.0
 0000338,-0.00000191,-0.00000524,0.00000250,0.00000003,-0.00000784,0.00
 000092,0.00000200,-0.00000703,0.00000133,0.00000202,-0.00000397,0.0000
 0320,-0.00000174,-0.00000196,0.00000064,-0.00000102,-0.00000060,-0.000
 00227,0.00000108,0.00000236,0.00000139,-0.00000234,0.00000047,0.000003
 02,-0.00000489,0.00000142,0.00000215,-0.00000401,0.00000470,-0.0000007
 8,-0.00000260,0.00000655,-0.00000144,-0.00000064,0.00000443,-0.0000000
 1,0.00000117,-0.00000043,-0.00000137,0.00000226,0.00000195,-0.00000173
 ,0.00000293,0.00000005,0.00000076,-0.00000078,-0.00000533,0.00000047,0
 .00000052,-0.00000006,-0.00000271,0.00000228,-0.00000113,-0.00000297,0
 .00000155,-0.00000074,0.00000020,0.00000330,0.00000256,0.00000085,-0.0
 0000258,0.00000476,-0.00000067,-0.00000259,0.00000327,-0.00000196,-0.0
 0000067,-0.00000007,-0.00000126,-0.00000180,-0.00000088,0.00000137,-0.
 00000229,0.00000481,0.00000095,-0.00000076,0.00000265,-0.00000561,0.00
 000203,0.00000185,-0.00000402,0.00000267,-0.00000692,0.00000192,0.0000
 0394,-0.00000002,0.00000108,-0.00000033,0.00000278,0.00000019,-0.00000
 267,0.00000046,-0.00000209,0.00000092,0.00000333,-0.00000064,-0.000001
 52,0.00000169,-0.00000138,0.00000276,-0.00000162,0.00000016,0.00000052
 ,-0.00000173,0.00000327,-0.00000078,0.00000176,0.00000223,-0.00000270,
 0.00000120,0.00000204,-0.00000238,0.00000246,0.00000059,0.00000018,0.0
 0000393,-0.00000239,-0.00000033,0.00000363,-0.00000045,-0.00000179,0.0
 0000300,-0.00000402,0.00000421,-0.00000071,-0.00000101,0.00000276,0.00
 000119,-0.00000152,0.00000584,0.00000255,-0.00000022,0.00000259,-0.000
 00343,-0.00000209,0.00000361,-0.00000262,-0.00000192,0.00000384,-0.000
 00299\\\@
 The archive entry for this job was punched.


 ADAM SMITH SAID, "THE REAL PRICE OF ANYTHING IS THE TOIL AND TROUBLE
 OF ACQUIRING IT."  BUT IN ALL UNDERTAKINGS WITH NATURE WE SHOULD FIRST
 READ CAREFULLY THE SMALL PRINT IN THE CONTRACT. THIS MIGHT DISCLOSE
 THAT THE REAL PRICE IS TO BE PAID BY THOSE WHO INHERIT THE DEPLETION
 AND DESPOILATION THAT FOLLOWS.
                               -- E. R. HARRISON IN "COSMOLOGY" (1980)
 Job cpu time:       8 days 19 hours 11 minutes 18.4 seconds.
 Elapsed time:       0 days 10 hours 33 minutes 47.9 seconds.
 File lengths (MBytes):  RWF=   4598 Int=      0 D2E=      0 Chk=     89 Scr=      1
 Normal termination of Gaussian 16 at Thu Jan  9 04:19:06 2025.
