 Entering Gaussian System, Link 0=g16
 Input=gjfs/data_set_12-St_dormant-25.gjf
 Output=gjfs/data_set_12-St_dormant-25.log
 Initial command:
 /usr/local/intel/g16/l1.exe "/scr/Gau-1130749.inp" -scrdir="/scr/"
 Entering Link 1 = /usr/local/intel/g16/l1.exe PID=   1130751.
  
 Copyright (c) 1988-2019, Gaussian, Inc.  All Rights Reserved.
  
 This is part of the Gaussian(R) 16 program.  It is based on
 the Gaussian(R) 09 system (copyright 2009, Gaussian, Inc.),
 the Gaussian(R) 03 system (copyright 2003, Gaussian, Inc.),
 the Gaussian(R) 98 system (copyright 1998, Gaussian, Inc.),
 the Gaussian(R) 94 system (copyright 1995, Gaussian, Inc.),
 the Gaussian 92(TM) system (copyright 1992, Gaussian, Inc.),
 the Gaussian 90(TM) system (copyright 1990, Gaussian, Inc.),
 the Gaussian 88(TM) system (copyright 1988, Gaussian, Inc.),
 the Gaussian 86(TM) system (copyright 1986, Carnegie Mellon
 University), and the Gaussian 82(TM) system (copyright 1983,
 Carnegie Mellon University). Gaussian is a federally registered
 trademark of Gaussian, Inc.
  
 This software contains proprietary and confidential information,
 including trade secrets, belonging to Gaussian, Inc.
  
 This software is provided under written license and may be
 used, copied, transmitted, or stored only in accord with that
 written license.
  
 The following legend is applicable only to US Government
 contracts under FAR:
  
                    RESTRICTED RIGHTS LEGEND
  
 Use, reproduction and disclosure by the US Government is
 subject to restrictions as set forth in subparagraphs (a)
 and (c) of the Commercial Computer Software - Restricted
 Rights clause in FAR 52.227-19.
  
 Gaussian, Inc.
 340 Quinnipiac St., Bldg. 40, Wallingford CT 06492
  
  
 ---------------------------------------------------------------
 Warning -- This program may not be used in any manner that
 competes with the business of Gaussian, Inc. or will provide
 assistance to any competitor of Gaussian, Inc.  The licensee
 of this program is prohibited from giving any competitor of
 Gaussian, Inc. access to this program.  By using this program,
 the user acknowledges that Gaussian, Inc. is engaged in the
 business of creating and licensing software in the field of
 computational chemistry and represents and warrants to the
 licensee that it is not a competitor of Gaussian, Inc. and that
 it will not use this program in any manner prohibited above.
 ---------------------------------------------------------------
  

 Cite this work as:
 Gaussian 16, Revision C.01,
 M. J. Frisch, G. W. Trucks, H. B. Schlegel, G. E. Scuseria, 
 M. A. Robb, J. R. Cheeseman, G. Scalmani, V. Barone, 
 G. A. Petersson, H. Nakatsuji, X. Li, M. Caricato, A. V. Marenich, 
 J. Bloino, B. G. Janesko, R. Gomperts, B. Mennucci, H. P. Hratchian, 
 J. V. Ortiz, A. F. Izmaylov, J. L. Sonnenberg, D. Williams-Young, 
 F. Ding, F. Lipparini, F. Egidi, J. Goings, B. Peng, A. Petrone, 
 T. Henderson, D. Ranasinghe, V. G. Zakrzewski, J. Gao, N. Rega, 
 G. Zheng, W. Liang, M. Hada, M. Ehara, K. Toyota, R. Fukuda, 
 J. Hasegawa, M. Ishida, T. Nakajima, Y. Honda, O. Kitao, H. Nakai, 
 T. Vreven, K. Throssell, J. A. Montgomery, Jr., J. E. Peralta, 
 F. Ogliaro, M. J. Bearpark, J. J. Heyd, E. N. Brothers, K. N. Kudin, 
 V. N. Staroverov, T. A. Keith, R. Kobayashi, J. Normand, 
 K. Raghavachari, A. P. Rendell, J. C. Burant, S. S. Iyengar, 
 J. Tomasi, M. Cossi, J. M. Millam, M. Klene, C. Adamo, R. Cammi, 
 J. W. Ochterski, R. L. Martin, K. Morokuma, O. Farkas, 
 J. B. Foresman, and D. J. Fox, Gaussian, Inc., Wallingford CT, 2019.
 
 ******************************************
 Gaussian 16:  ES64L-G16RevC.01  3-Jul-2019
                 8-Jan-2025 
 ******************************************
 %nprocshared=20
 Will use up to   20 processors via shared memory.
 %mem=30GB
 %chk=outputs/data_set_12-St_dormant-25.chk
 ----------------------------------
 #p M062X/DEF2TZVP opt freq pop=NBO
 ----------------------------------
 1/18=20,19=15,26=3,38=1/1,3;
 2/9=110,12=2,17=6,18=5,40=1/2;
 3/5=44,7=101,11=2,25=1,30=1,71=1,74=-55/1,2,3;
 4//1;
 5/5=2,38=5/2;
 6/7=2,8=2,9=2,10=2,28=1,40=1/1,7;
 7//1,2,3,16;
 1/18=20,19=15,26=3/3(2);
 2/9=110/2;
 99//99;
 2/9=110/2;
 3/5=44,7=101,11=2,25=1,30=1,71=1,74=-55/1,2,3;
 4/5=5,16=3,69=1/1;
 5/5=2,38=5/2;
 7//1,2,3,16;
 1/18=20,19=15,26=3/3(-5);
 2/9=110/2;
 6/7=2,8=2,9=2,10=2,19=2,28=1,40=1/1,7;
 99/9=1/99;
 Leave Link    1 at Wed Jan  8 07:29:15 2025, MaxMem=  4026531840 cpu:              26.1 elap:               3.3
 (Enter /usr/local/intel/g16/l101.exe)
 -------------------------
 data_set_12-St_dormant-25
 -------------------------
 Symbolic Z-matrix:
 Charge =  0 Multiplicity = 1
 C                    -3.04836   2.09103  -2.00261 
 C                    -3.66863   3.05586  -1.1937 
 C                    -3.11779   3.36428   0.05938 
 C                    -1.9641    2.70389   0.50385 
 C                    -1.34178   1.72692  -0.29237 
 C                    -1.89149   1.4397   -1.55455 
 C                    -0.11115   0.95896   0.15886 
 C                     2.02561   0.95328   1.62627 
 C                     2.95401   0.64486   0.45883 
 C                     3.1445    1.54914  -0.60259 
 C                     4.02554   1.25219  -1.65228 
 C                     4.74154   0.04525  -1.65429 
 C                     4.57054  -0.85849  -0.59466 
 C                     3.68368  -0.55763   0.44809 
 C                     2.77825   1.79121   2.68595 
 H                    -3.46393   1.84839  -2.97533 
 H                    -4.56471   3.56309  -1.53651 
 H                    -3.58767   4.11306   0.68898 
 H                    -1.5634    2.94949   1.48144 
 H                    -1.42223   0.68136  -2.17132 
 H                     0.50776   0.78015  -0.72433 
 H                     1.74097  -0.00067   2.08426 
 H                     2.59877   2.48815  -0.61978 
 H                     4.15224   1.95901  -2.46623 
 H                     5.42145  -0.18623  -2.46764 
 H                     5.11925  -1.79484  -0.58423 
 H                     3.54672  -1.26794   1.25915 
 H                     2.13962   1.98081   3.55689 
 H                     3.08431   2.75745   2.26656 
 H                     3.68018   1.27161   3.02577 
 C                     0.71873   1.67331   1.23007 
 H                     0.93601   2.6917    0.88217 
 H                     0.11492   1.77108   2.14067 
 O                    -0.40842  -0.35293   0.77547 
 N                    -1.16125  -1.27951  -0.08084 
 C                    -0.15777  -2.31448  -0.56639 
 C                    -0.86044  -3.46888  -1.30911 
 C                    -3.4736   -2.18811  -0.33114 
 C                    -2.41542  -1.68266   0.68066 
 C                     0.75521  -1.61381  -1.60153 
 C                     0.74807  -2.89337   0.55181 
 C                    -2.17573  -2.72282   1.80185 
 C                    -3.03316  -0.42682   1.33739 
 H                    -1.5019   -3.09204  -2.11139 
 H                    -1.45165  -4.10325  -0.64506 
 H                    -3.49122  -1.52357  -1.20074 
 H                    -4.46085  -2.16159   0.14406 
 H                     1.44886  -0.91776  -1.1268 
 H                     0.15267  -1.0791   -2.34294 
 H                     1.36273  -2.36231  -2.12293 
 H                     0.23911  -3.64815   1.15557 
 H                     1.08781  -2.08732   1.20556 
 H                     1.62714  -3.36268   0.09452 
 H                    -3.10092  -2.85939   2.37352 
 H                    -1.39728  -2.37078   2.48636 
 H                    -1.88534  -3.70183   1.41061 
 H                    -2.33962   0.04772   2.03291 
 H                    -3.93007  -0.73199   1.88824 
 H                    -3.33046   0.3034    0.58167 
 H                    -0.08699  -4.10159  -1.75802 
 H                    -3.30371  -3.21025  -0.67017 
 
 ITRead=  0  0  0  0  0  0  0  0  0  0  0  0  0  0  0  0  0  0  0  0
 ITRead=  0  0  0  0  0  0  0  0  0  0  0  0  0  0  0  0  0  0  0  0
 ITRead=  0  0  0  0  0  0  0  0  0  0  0  0  0  0  0  0  0  0  0  0
 ITRead=  0
 MicOpt= -1 -1 -1 -1 -1 -1 -1 -1 -1 -1 -1 -1 -1 -1 -1 -1 -1 -1 -1 -1
 MicOpt= -1 -1 -1 -1 -1 -1 -1 -1 -1 -1 -1 -1 -1 -1 -1 -1 -1 -1 -1 -1
 MicOpt= -1 -1 -1 -1 -1 -1 -1 -1 -1 -1 -1 -1 -1 -1 -1 -1 -1 -1 -1 -1
 MicOpt= -1
 NAtoms=     61 NQM=       61 NQMF=       0 NMMI=      0 NMMIF=      0
                NMic=       0 NMicF=      0.
                    Isotopes and Nuclear Properties:
 (Nuclear quadrupole moments (NQMom) in fm**2, nuclear magnetic moments (NMagM)
  in nuclear magnetons)

  Atom         1           2           3           4           5           6           7           8           9          10
 IAtWgt=          12          12          12          12          12          12          12          12          12          12
 AtmWgt=  12.0000000  12.0000000  12.0000000  12.0000000  12.0000000  12.0000000  12.0000000  12.0000000  12.0000000  12.0000000
 NucSpn=           0           0           0           0           0           0           0           0           0           0
 AtZEff=  -0.0000000  -0.0000000  -0.0000000  -0.0000000  -0.0000000  -0.0000000  -0.0000000  -0.0000000  -0.0000000  -0.0000000
 NQMom=    0.0000000   0.0000000   0.0000000   0.0000000   0.0000000   0.0000000   0.0000000   0.0000000   0.0000000   0.0000000
 NMagM=    0.0000000   0.0000000   0.0000000   0.0000000   0.0000000   0.0000000   0.0000000   0.0000000   0.0000000   0.0000000
 AtZNuc=   6.0000000   6.0000000   6.0000000   6.0000000   6.0000000   6.0000000   6.0000000   6.0000000   6.0000000   6.0000000

  Atom        11          12          13          14          15          16          17          18          19          20
 IAtWgt=          12          12          12          12          12           1           1           1           1           1
 AtmWgt=  12.0000000  12.0000000  12.0000000  12.0000000  12.0000000   1.0078250   1.0078250   1.0078250   1.0078250   1.0078250
 NucSpn=           0           0           0           0           0           1           1           1           1           1
 AtZEff=  -0.0000000  -0.0000000  -0.0000000  -0.0000000  -0.0000000  -0.0000000  -0.0000000  -0.0000000  -0.0000000  -0.0000000
 NQMom=    0.0000000   0.0000000   0.0000000   0.0000000   0.0000000   0.0000000   0.0000000   0.0000000   0.0000000   0.0000000
 NMagM=    0.0000000   0.0000000   0.0000000   0.0000000   0.0000000   2.7928460   2.7928460   2.7928460   2.7928460   2.7928460
 AtZNuc=   6.0000000   6.0000000   6.0000000   6.0000000   6.0000000   1.0000000   1.0000000   1.0000000   1.0000000   1.0000000

  Atom        21          22          23          24          25          26          27          28          29          30
 IAtWgt=           1           1           1           1           1           1           1           1           1           1
 AtmWgt=   1.0078250   1.0078250   1.0078250   1.0078250   1.0078250   1.0078250   1.0078250   1.0078250   1.0078250   1.0078250
 NucSpn=           1           1           1           1           1           1           1           1           1           1
 AtZEff=  -0.0000000  -0.0000000  -0.0000000  -0.0000000  -0.0000000  -0.0000000  -0.0000000  -0.0000000  -0.0000000  -0.0000000
 NQMom=    0.0000000   0.0000000   0.0000000   0.0000000   0.0000000   0.0000000   0.0000000   0.0000000   0.0000000   0.0000000
 NMagM=    2.7928460   2.7928460   2.7928460   2.7928460   2.7928460   2.7928460   2.7928460   2.7928460   2.7928460   2.7928460
 AtZNuc=   1.0000000   1.0000000   1.0000000   1.0000000   1.0000000   1.0000000   1.0000000   1.0000000   1.0000000   1.0000000

  Atom        31          32          33          34          35          36          37          38          39          40
 IAtWgt=          12           1           1          16          14          12          12          12          12          12
 AtmWgt=  12.0000000   1.0078250   1.0078250  15.9949146  14.0030740  12.0000000  12.0000000  12.0000000  12.0000000  12.0000000
 NucSpn=           0           1           1           0           2           0           0           0           0           0
 AtZEff=  -0.0000000  -0.0000000  -0.0000000  -0.0000000  -0.0000000  -0.0000000  -0.0000000  -0.0000000  -0.0000000  -0.0000000
 NQMom=    0.0000000   0.0000000   0.0000000   0.0000000   2.0440000   0.0000000   0.0000000   0.0000000   0.0000000   0.0000000
 NMagM=    0.0000000   2.7928460   2.7928460   0.0000000   0.4037610   0.0000000   0.0000000   0.0000000   0.0000000   0.0000000
 AtZNuc=   6.0000000   1.0000000   1.0000000   8.0000000   7.0000000   6.0000000   6.0000000   6.0000000   6.0000000   6.0000000

  Atom        41          42          43          44          45          46          47          48          49          50
 IAtWgt=          12          12          12           1           1           1           1           1           1           1
 AtmWgt=  12.0000000  12.0000000  12.0000000   1.0078250   1.0078250   1.0078250   1.0078250   1.0078250   1.0078250   1.0078250
 NucSpn=           0           0           0           1           1           1           1           1           1           1
 AtZEff=  -0.0000000  -0.0000000  -0.0000000  -0.0000000  -0.0000000  -0.0000000  -0.0000000  -0.0000000  -0.0000000  -0.0000000
 NQMom=    0.0000000   0.0000000   0.0000000   0.0000000   0.0000000   0.0000000   0.0000000   0.0000000   0.0000000   0.0000000
 NMagM=    0.0000000   0.0000000   0.0000000   2.7928460   2.7928460   2.7928460   2.7928460   2.7928460   2.7928460   2.7928460
 AtZNuc=   6.0000000   6.0000000   6.0000000   1.0000000   1.0000000   1.0000000   1.0000000   1.0000000   1.0000000   1.0000000

  Atom        51          52          53          54          55          56          57          58          59          60
 IAtWgt=           1           1           1           1           1           1           1           1           1           1
 AtmWgt=   1.0078250   1.0078250   1.0078250   1.0078250   1.0078250   1.0078250   1.0078250   1.0078250   1.0078250   1.0078250
 NucSpn=           1           1           1           1           1           1           1           1           1           1
 AtZEff=  -0.0000000  -0.0000000  -0.0000000  -0.0000000  -0.0000000  -0.0000000  -0.0000000  -0.0000000  -0.0000000  -0.0000000
 NQMom=    0.0000000   0.0000000   0.0000000   0.0000000   0.0000000   0.0000000   0.0000000   0.0000000   0.0000000   0.0000000
 NMagM=    2.7928460   2.7928460   2.7928460   2.7928460   2.7928460   2.7928460   2.7928460   2.7928460   2.7928460   2.7928460
 AtZNuc=   1.0000000   1.0000000   1.0000000   1.0000000   1.0000000   1.0000000   1.0000000   1.0000000   1.0000000   1.0000000

  Atom        61
 IAtWgt=           1
 AtmWgt=   1.0078250
 NucSpn=           1
 AtZEff=  -0.0000000
 NQMom=    0.0000000
 NMagM=    2.7928460
 AtZNuc=   1.0000000
 Leave Link  101 at Wed Jan  8 07:29:17 2025, MaxMem=  4026531840 cpu:              25.7 elap:               1.4
 (Enter /usr/local/intel/g16/l103.exe)

 GradGradGradGradGradGradGradGradGradGradGradGradGradGradGradGradGradGrad
 Berny optimization.
 Initialization pass.
                           ----------------------------
                           !    Initial Parameters    !
                           ! (Angstroms and Degrees)  !
 --------------------------                            --------------------------
 ! Name  Definition              Value          Derivative Info.                !
 --------------------------------------------------------------------------------
 ! R1    R(1,2)                  1.4036         estimate D2E/DX2                !
 ! R2    R(1,6)                  1.4012         estimate D2E/DX2                !
 ! R3    R(1,16)                 1.0852         estimate D2E/DX2                !
 ! R4    R(2,3)                  1.4031         estimate D2E/DX2                !
 ! R5    R(2,17)                 1.0852         estimate D2E/DX2                !
 ! R6    R(3,4)                  1.4017         estimate D2E/DX2                !
 ! R7    R(3,18)                 1.0853         estimate D2E/DX2                !
 ! R8    R(4,5)                  1.4056         estimate D2E/DX2                !
 ! R9    R(4,19)                 1.0847         estimate D2E/DX2                !
 ! R10   R(5,6)                  1.4063         estimate D2E/DX2                !
 ! R11   R(5,7)                  1.5192         estimate D2E/DX2                !
 ! R12   R(6,20)                 1.0843         estimate D2E/DX2                !
 ! R13   R(7,21)                 1.0932         estimate D2E/DX2                !
 ! R14   R(7,31)                 1.5318         estimate D2E/DX2                !
 ! R15   R(7,34)                 1.4797         estimate D2E/DX2                !
 ! R16   R(8,9)                  1.5231         estimate D2E/DX2                !
 ! R17   R(8,15)                 1.5465         estimate D2E/DX2                !
 ! R18   R(8,22)                 1.0958         estimate D2E/DX2                !
 ! R19   R(8,31)                 1.5438         estimate D2E/DX2                !
 ! R20   R(9,10)                 1.4074         estimate D2E/DX2                !
 ! R21   R(9,14)                 1.4066         estimate D2E/DX2                !
 ! R22   R(10,11)                1.4022         estimate D2E/DX2                !
 ! R23   R(10,23)                1.0862         estimate D2E/DX2                !
 ! R24   R(11,12)                1.4033         estimate D2E/DX2                !
 ! R25   R(11,24)                1.0854         estimate D2E/DX2                !
 ! R26   R(12,13)                1.4031         estimate D2E/DX2                !
 ! R27   R(12,25)                1.0851         estimate D2E/DX2                !
 ! R28   R(13,14)                1.4016         estimate D2E/DX2                !
 ! R29   R(13,26)                1.0853         estimate D2E/DX2                !
 ! R30   R(14,27)                1.0868         estimate D2E/DX2                !
 ! R31   R(15,28)                1.0965         estimate D2E/DX2                !
 ! R32   R(15,29)                1.0969         estimate D2E/DX2                !
 ! R33   R(15,30)                1.095          estimate D2E/DX2                !
 ! R34   R(31,32)                1.0979         estimate D2E/DX2                !
 ! R35   R(31,33)                1.097          estimate D2E/DX2                !
 ! R36   R(34,35)                1.4692         estimate D2E/DX2                !
 ! R37   R(35,36)                1.5211         estimate D2E/DX2                !
 ! R38   R(35,39)                1.5216         estimate D2E/DX2                !
 ! R39   R(36,37)                1.5421         estimate D2E/DX2                !
 ! R40   R(36,40)                1.5479         estimate D2E/DX2                !
 ! R41   R(36,41)                1.5511         estimate D2E/DX2                !
 ! R42   R(37,44)                1.0941         estimate D2E/DX2                !
 ! R43   R(37,45)                1.0922         estimate D2E/DX2                !
 ! R44   R(37,60)                1.0955         estimate D2E/DX2                !
 ! R45   R(38,39)                1.5489         estimate D2E/DX2                !
 ! R46   R(38,46)                1.0946         estimate D2E/DX2                !
 ! R47   R(38,47)                1.096          estimate D2E/DX2                !
 ! R48   R(38,61)                1.0902         estimate D2E/DX2                !
 ! R49   R(39,42)                1.5481         estimate D2E/DX2                !
 ! R50   R(39,43)                1.546          estimate D2E/DX2                !
 ! R51   R(40,48)                1.0913         estimate D2E/DX2                !
 ! R52   R(40,49)                1.0948         estimate D2E/DX2                !
 ! R53   R(40,50)                1.096          estimate D2E/DX2                !
 ! R54   R(41,51)                1.0924         estimate D2E/DX2                !
 ! R55   R(41,52)                1.092          estimate D2E/DX2                !
 ! R56   R(41,53)                1.0964         estimate D2E/DX2                !
 ! R57   R(42,54)                1.0961         estimate D2E/DX2                !
 ! R58   R(42,55)                1.0947         estimate D2E/DX2                !
 ! R59   R(42,56)                1.0936         estimate D2E/DX2                !
 ! R60   R(43,57)                1.0908         estimate D2E/DX2                !
 ! R61   R(43,58)                1.0959         estimate D2E/DX2                !
 ! R62   R(43,59)                1.0921         estimate D2E/DX2                !
 ! A1    A(2,1,6)              120.008          estimate D2E/DX2                !
 ! A2    A(2,1,16)             120.0684         estimate D2E/DX2                !
 ! A3    A(6,1,16)             119.9236         estimate D2E/DX2                !
 ! A4    A(1,2,3)              119.4918         estimate D2E/DX2                !
 ! A5    A(1,2,17)             120.2739         estimate D2E/DX2                !
 ! A6    A(3,2,17)             120.2336         estimate D2E/DX2                !
 ! A7    A(2,3,4)              120.1829         estimate D2E/DX2                !
 ! A8    A(2,3,18)             119.9845         estimate D2E/DX2                !
 ! A9    A(4,3,18)             119.8321         estimate D2E/DX2                !
 ! A10   A(3,4,5)              120.8145         estimate D2E/DX2                !
 ! A11   A(3,4,19)             118.8925         estimate D2E/DX2                !
 ! A12   A(5,4,19)             120.2884         estimate D2E/DX2                !
 ! A13   A(4,5,6)              118.5089         estimate D2E/DX2                !
 ! A14   A(4,5,7)              122.8037         estimate D2E/DX2                !
 ! A15   A(6,5,7)              118.684          estimate D2E/DX2                !
 ! A16   A(1,6,5)              120.9826         estimate D2E/DX2                !
 ! A17   A(1,6,20)             120.035          estimate D2E/DX2                !
 ! A18   A(5,6,20)             118.9596         estimate D2E/DX2                !
 ! A19   A(5,7,21)             107.5379         estimate D2E/DX2                !
 ! A20   A(5,7,31)             114.2572         estimate D2E/DX2                !
 ! A21   A(5,7,34)             114.1554         estimate D2E/DX2                !
 ! A22   A(21,7,31)            109.5443         estimate D2E/DX2                !
 ! A23   A(21,7,34)            107.7809         estimate D2E/DX2                !
 ! A24   A(31,7,34)            103.3489         estimate D2E/DX2                !
 ! A25   A(9,8,15)             109.7721         estimate D2E/DX2                !
 ! A26   A(9,8,22)             107.6014         estimate D2E/DX2                !
 ! A27   A(9,8,31)             114.4382         estimate D2E/DX2                !
 ! A28   A(15,8,22)            108.1635         estimate D2E/DX2                !
 ! A29   A(15,8,31)            109.5812         estimate D2E/DX2                !
 ! A30   A(22,8,31)            107.0609         estimate D2E/DX2                !
 ! A31   A(8,9,10)             122.0368         estimate D2E/DX2                !
 ! A32   A(8,9,14)             119.6797         estimate D2E/DX2                !
 ! A33   A(10,9,14)            118.2508         estimate D2E/DX2                !
 ! A34   A(9,10,11)            120.9007         estimate D2E/DX2                !
 ! A35   A(9,10,23)            119.9602         estimate D2E/DX2                !
 ! A36   A(11,10,23)           119.1371         estimate D2E/DX2                !
 ! A37   A(10,11,12)           120.2504         estimate D2E/DX2                !
 ! A38   A(10,11,24)           119.7878         estimate D2E/DX2                !
 ! A39   A(12,11,24)           119.9617         estimate D2E/DX2                !
 ! A40   A(11,12,13)           119.3853         estimate D2E/DX2                !
 ! A41   A(11,12,25)           120.2815         estimate D2E/DX2                !
 ! A42   A(13,12,25)           120.3332         estimate D2E/DX2                !
 ! A43   A(12,13,14)           120.0468         estimate D2E/DX2                !
 ! A44   A(12,13,26)           120.0872         estimate D2E/DX2                !
 ! A45   A(14,13,26)           119.8646         estimate D2E/DX2                !
 ! A46   A(9,14,13)            121.1609         estimate D2E/DX2                !
 ! A47   A(9,14,27)            119.1879         estimate D2E/DX2                !
 ! A48   A(13,14,27)           119.6481         estimate D2E/DX2                !
 ! A49   A(8,15,28)            110.7626         estimate D2E/DX2                !
 ! A50   A(8,15,29)            110.5545         estimate D2E/DX2                !
 ! A51   A(8,15,30)            110.8806         estimate D2E/DX2                !
 ! A52   A(28,15,29)           108.2938         estimate D2E/DX2                !
 ! A53   A(28,15,30)           108.3788         estimate D2E/DX2                !
 ! A54   A(29,15,30)           107.8693         estimate D2E/DX2                !
 ! A55   A(7,31,8)             114.8716         estimate D2E/DX2                !
 ! A56   A(7,31,32)            108.554          estimate D2E/DX2                !
 ! A57   A(7,31,33)            108.8961         estimate D2E/DX2                !
 ! A58   A(8,31,32)            110.2684         estimate D2E/DX2                !
 ! A59   A(8,31,33)            107.1267         estimate D2E/DX2                !
 ! A60   A(32,31,33)           106.8161         estimate D2E/DX2                !
 ! A61   A(7,34,35)            114.784          estimate D2E/DX2                !
 ! A62   A(34,35,36)           106.0875         estimate D2E/DX2                !
 ! A63   A(34,35,39)           107.3227         estimate D2E/DX2                !
 ! A64   A(36,35,39)           121.5481         estimate D2E/DX2                !
 ! A65   A(35,36,37)           111.2525         estimate D2E/DX2                !
 ! A66   A(35,36,40)           107.1323         estimate D2E/DX2                !
 ! A67   A(35,36,41)           114.1464         estimate D2E/DX2                !
 ! A68   A(37,36,40)           106.5901         estimate D2E/DX2                !
 ! A69   A(37,36,41)           109.507          estimate D2E/DX2                !
 ! A70   A(40,36,41)           107.8528         estimate D2E/DX2                !
 ! A71   A(36,37,44)           111.2523         estimate D2E/DX2                !
 ! A72   A(36,37,45)           112.8683         estimate D2E/DX2                !
 ! A73   A(36,37,60)           107.9401         estimate D2E/DX2                !
 ! A74   A(44,37,45)           109.1785         estimate D2E/DX2                !
 ! A75   A(44,37,60)           108.2025         estimate D2E/DX2                !
 ! A76   A(45,37,60)           107.2087         estimate D2E/DX2                !
 ! A77   A(39,38,46)           109.3813         estimate D2E/DX2                !
 ! A78   A(39,38,47)           108.9219         estimate D2E/DX2                !
 ! A79   A(39,38,61)           113.7436         estimate D2E/DX2                !
 ! A80   A(46,38,47)           108.3772         estimate D2E/DX2                !
 ! A81   A(46,38,61)           108.9447         estimate D2E/DX2                !
 ! A82   A(47,38,61)           107.3309         estimate D2E/DX2                !
 ! A83   A(35,39,38)           108.8234         estimate D2E/DX2                !
 ! A84   A(35,39,42)           114.3845         estimate D2E/DX2                !
 ! A85   A(35,39,43)           109.0695         estimate D2E/DX2                !
 ! A86   A(38,39,42)           111.0779         estimate D2E/DX2                !
 ! A87   A(38,39,43)           105.641          estimate D2E/DX2                !
 ! A88   A(42,39,43)           107.4587         estimate D2E/DX2                !
 ! A89   A(36,40,48)           111.8819         estimate D2E/DX2                !
 ! A90   A(36,40,49)           110.4464         estimate D2E/DX2                !
 ! A91   A(36,40,50)           109.6304         estimate D2E/DX2                !
 ! A92   A(48,40,49)           109.4435         estimate D2E/DX2                !
 ! A93   A(48,40,50)           106.8702         estimate D2E/DX2                !
 ! A94   A(49,40,50)           108.4482         estimate D2E/DX2                !
 ! A95   A(36,41,51)           112.5951         estimate D2E/DX2                !
 ! A96   A(36,41,52)           109.7411         estimate D2E/DX2                !
 ! A97   A(36,41,53)           109.1051         estimate D2E/DX2                !
 ! A98   A(51,41,52)           108.9094         estimate D2E/DX2                !
 ! A99   A(51,41,53)           107.9594         estimate D2E/DX2                !
 ! A100  A(52,41,53)           108.433          estimate D2E/DX2                !
 ! A101  A(39,42,54)           109.3151         estimate D2E/DX2                !
 ! A102  A(39,42,55)           110.2968         estimate D2E/DX2                !
 ! A103  A(39,42,56)           112.5526         estimate D2E/DX2                !
 ! A104  A(54,42,55)           108.3107         estimate D2E/DX2                !
 ! A105  A(54,42,56)           107.4093         estimate D2E/DX2                !
 ! A106  A(55,42,56)           108.8301         estimate D2E/DX2                !
 ! A107  A(39,43,57)           111.7271         estimate D2E/DX2                !
 ! A108  A(39,43,58)           108.3212         estimate D2E/DX2                !
 ! A109  A(39,43,59)           110.9752         estimate D2E/DX2                !
 ! A110  A(57,43,58)           108.7229         estimate D2E/DX2                !
 ! A111  A(57,43,59)           108.8695         estimate D2E/DX2                !
 ! A112  A(58,43,59)           108.1325         estimate D2E/DX2                !
 ! D1    D(6,1,2,3)              0.2825         estimate D2E/DX2                !
 ! D2    D(6,1,2,17)           179.9901         estimate D2E/DX2                !
 ! D3    D(16,1,2,3)          -179.7303         estimate D2E/DX2                !
 ! D4    D(16,1,2,17)           -0.0227         estimate D2E/DX2                !
 ! D5    D(2,1,6,5)              0.6423         estimate D2E/DX2                !
 ! D6    D(2,1,6,20)           178.887          estimate D2E/DX2                !
 ! D7    D(16,1,6,5)          -179.3449         estimate D2E/DX2                !
 ! D8    D(16,1,6,20)           -1.1002         estimate D2E/DX2                !
 ! D9    D(1,2,3,4)             -0.6007         estimate D2E/DX2                !
 ! D10   D(1,2,3,18)           179.6548         estimate D2E/DX2                !
 ! D11   D(17,2,3,4)           179.6916         estimate D2E/DX2                !
 ! D12   D(17,2,3,18)           -0.0528         estimate D2E/DX2                !
 ! D13   D(2,3,4,5)              0.0013         estimate D2E/DX2                !
 ! D14   D(2,3,4,19)          -179.2187         estimate D2E/DX2                !
 ! D15   D(18,3,4,5)           179.7462         estimate D2E/DX2                !
 ! D16   D(18,3,4,19)            0.5262         estimate D2E/DX2                !
 ! D17   D(3,4,5,6)              0.9007         estimate D2E/DX2                !
 ! D18   D(3,4,5,7)           -178.4202         estimate D2E/DX2                !
 ! D19   D(19,4,5,6)          -179.8901         estimate D2E/DX2                !
 ! D20   D(19,4,5,7)             0.7889         estimate D2E/DX2                !
 ! D21   D(4,5,6,1)             -1.2236         estimate D2E/DX2                !
 ! D22   D(4,5,6,20)          -179.4869         estimate D2E/DX2                !
 ! D23   D(7,5,6,1)            178.1258         estimate D2E/DX2                !
 ! D24   D(7,5,6,20)            -0.1375         estimate D2E/DX2                !
 ! D25   D(4,5,7,21)          -145.2786         estimate D2E/DX2                !
 ! D26   D(4,5,7,31)           -23.4603         estimate D2E/DX2                !
 ! D27   D(4,5,7,34)            95.2013         estimate D2E/DX2                !
 ! D28   D(6,5,7,21)            35.4016         estimate D2E/DX2                !
 ! D29   D(6,5,7,31)           157.2199         estimate D2E/DX2                !
 ! D30   D(6,5,7,34)           -84.1185         estimate D2E/DX2                !
 ! D31   D(5,7,31,8)          -175.8317         estimate D2E/DX2                !
 ! D32   D(5,7,31,32)          -51.8889         estimate D2E/DX2                !
 ! D33   D(5,7,31,33)           64.0515         estimate D2E/DX2                !
 ! D34   D(21,7,31,8)          -55.1219         estimate D2E/DX2                !
 ! D35   D(21,7,31,32)          68.8209         estimate D2E/DX2                !
 ! D36   D(21,7,31,33)        -175.2387         estimate D2E/DX2                !
 ! D37   D(34,7,31,8)           59.5412         estimate D2E/DX2                !
 ! D38   D(34,7,31,32)        -176.516          estimate D2E/DX2                !
 ! D39   D(34,7,31,33)         -60.5756         estimate D2E/DX2                !
 ! D40   D(5,7,34,35)           57.8406         estimate D2E/DX2                !
 ! D41   D(21,7,34,35)         -61.5425         estimate D2E/DX2                !
 ! D42   D(31,7,34,35)        -177.4661         estimate D2E/DX2                !
 ! D43   D(15,8,9,10)          -84.4843         estimate D2E/DX2                !
 ! D44   D(15,8,9,14)           93.3993         estimate D2E/DX2                !
 ! D45   D(22,8,9,10)          158.0272         estimate D2E/DX2                !
 ! D46   D(22,8,9,14)          -24.0892         estimate D2E/DX2                !
 ! D47   D(31,8,9,10)           39.1946         estimate D2E/DX2                !
 ! D48   D(31,8,9,14)         -142.9218         estimate D2E/DX2                !
 ! D49   D(9,8,15,28)         -177.2114         estimate D2E/DX2                !
 ! D50   D(9,8,15,29)           62.7442         estimate D2E/DX2                !
 ! D51   D(9,8,15,30)          -56.8454         estimate D2E/DX2                !
 ! D52   D(22,8,15,28)         -60.0741         estimate D2E/DX2                !
 ! D53   D(22,8,15,29)         179.8815         estimate D2E/DX2                !
 ! D54   D(22,8,15,30)          60.2919         estimate D2E/DX2                !
 ! D55   D(31,8,15,28)          56.3128         estimate D2E/DX2                !
 ! D56   D(31,8,15,29)         -63.7317         estimate D2E/DX2                !
 ! D57   D(31,8,15,30)         176.6787         estimate D2E/DX2                !
 ! D58   D(9,8,31,7)            54.9618         estimate D2E/DX2                !
 ! D59   D(9,8,31,32)          -68.0678         estimate D2E/DX2                !
 ! D60   D(9,8,31,33)          176.0513         estimate D2E/DX2                !
 ! D61   D(15,8,31,7)          178.7429         estimate D2E/DX2                !
 ! D62   D(15,8,31,32)          55.7133         estimate D2E/DX2                !
 ! D63   D(15,8,31,33)         -60.1676         estimate D2E/DX2                !
 ! D64   D(22,8,31,7)          -64.1753         estimate D2E/DX2                !
 ! D65   D(22,8,31,32)         172.7951         estimate D2E/DX2                !
 ! D66   D(22,8,31,33)          56.9142         estimate D2E/DX2                !
 ! D67   D(8,9,10,11)          178.715          estimate D2E/DX2                !
 ! D68   D(8,9,10,23)           -1.8002         estimate D2E/DX2                !
 ! D69   D(14,9,10,11)           0.8024         estimate D2E/DX2                !
 ! D70   D(14,9,10,23)        -179.7128         estimate D2E/DX2                !
 ! D71   D(8,9,14,13)         -178.4767         estimate D2E/DX2                !
 ! D72   D(8,9,14,27)            2.1707         estimate D2E/DX2                !
 ! D73   D(10,9,14,13)          -0.5134         estimate D2E/DX2                !
 ! D74   D(10,9,14,27)        -179.866          estimate D2E/DX2                !
 ! D75   D(9,10,11,12)          -0.454          estimate D2E/DX2                !
 ! D76   D(9,10,11,24)         179.4733         estimate D2E/DX2                !
 ! D77   D(23,10,11,12)       -179.943          estimate D2E/DX2                !
 ! D78   D(23,10,11,24)         -0.0157         estimate D2E/DX2                !
 ! D79   D(10,11,12,13)         -0.2015         estimate D2E/DX2                !
 ! D80   D(10,11,12,25)        179.8371         estimate D2E/DX2                !
 ! D81   D(24,11,12,13)        179.8713         estimate D2E/DX2                !
 ! D82   D(24,11,12,25)         -0.0901         estimate D2E/DX2                !
 ! D83   D(11,12,13,14)          0.488          estimate D2E/DX2                !
 ! D84   D(11,12,13,26)       -179.9442         estimate D2E/DX2                !
 ! D85   D(25,12,13,14)       -179.5506         estimate D2E/DX2                !
 ! D86   D(25,12,13,26)          0.0171         estimate D2E/DX2                !
 ! D87   D(12,13,14,9)          -0.127          estimate D2E/DX2                !
 ! D88   D(12,13,14,27)        179.2227         estimate D2E/DX2                !
 ! D89   D(26,13,14,9)        -179.6957         estimate D2E/DX2                !
 ! D90   D(26,13,14,27)         -0.346          estimate D2E/DX2                !
 ! D91   D(7,34,35,36)         104.7098         estimate D2E/DX2                !
 ! D92   D(7,34,35,39)        -123.9626         estimate D2E/DX2                !
 ! D93   D(34,35,36,37)        171.5923         estimate D2E/DX2                !
 ! D94   D(34,35,36,40)        -72.2736         estimate D2E/DX2                !
 ! D95   D(34,35,36,41)         47.0511         estimate D2E/DX2                !
 ! D96   D(39,35,36,37)         48.8611         estimate D2E/DX2                !
 ! D97   D(39,35,36,40)        164.9952         estimate D2E/DX2                !
 ! D98   D(39,35,36,41)        -75.6801         estimate D2E/DX2                !
 ! D99   D(34,35,39,38)        158.4733         estimate D2E/DX2                !
 ! D100  D(34,35,39,42)        -76.6584         estimate D2E/DX2                !
 ! D101  D(34,35,39,43)         43.6879         estimate D2E/DX2                !
 ! D102  D(36,35,39,38)        -79.3788         estimate D2E/DX2                !
 ! D103  D(36,35,39,42)         45.4895         estimate D2E/DX2                !
 ! D104  D(36,35,39,43)        165.8358         estimate D2E/DX2                !
 ! D105  D(35,36,37,44)         53.3557         estimate D2E/DX2                !
 ! D106  D(35,36,37,45)        -69.7775         estimate D2E/DX2                !
 ! D107  D(35,36,37,60)        171.9249         estimate D2E/DX2                !
 ! D108  D(40,36,37,44)        -63.1109         estimate D2E/DX2                !
 ! D109  D(40,36,37,45)        173.7559         estimate D2E/DX2                !
 ! D110  D(40,36,37,60)         55.4582         estimate D2E/DX2                !
 ! D111  D(41,36,37,44)       -179.5284         estimate D2E/DX2                !
 ! D112  D(41,36,37,45)         57.3383         estimate D2E/DX2                !
 ! D113  D(41,36,37,60)        -60.9593         estimate D2E/DX2                !
 ! D114  D(35,36,40,48)         72.7281         estimate D2E/DX2                !
 ! D115  D(35,36,40,49)        -49.4517         estimate D2E/DX2                !
 ! D116  D(35,36,40,50)       -168.8937         estimate D2E/DX2                !
 ! D117  D(37,36,40,48)       -168.0874         estimate D2E/DX2                !
 ! D118  D(37,36,40,49)         69.7328         estimate D2E/DX2                !
 ! D119  D(37,36,40,50)        -49.7092         estimate D2E/DX2                !
 ! D120  D(41,36,40,48)        -50.5706         estimate D2E/DX2                !
 ! D121  D(41,36,40,49)       -172.7504         estimate D2E/DX2                !
 ! D122  D(41,36,40,50)         67.8076         estimate D2E/DX2                !
 ! D123  D(35,36,41,51)         78.2991         estimate D2E/DX2                !
 ! D124  D(35,36,41,52)        -43.186          estimate D2E/DX2                !
 ! D125  D(35,36,41,53)       -161.8599         estimate D2E/DX2                !
 ! D126  D(37,36,41,51)        -47.1681         estimate D2E/DX2                !
 ! D127  D(37,36,41,52)       -168.6532         estimate D2E/DX2                !
 ! D128  D(37,36,41,53)         72.673          estimate D2E/DX2                !
 ! D129  D(40,36,41,51)       -162.7838         estimate D2E/DX2                !
 ! D130  D(40,36,41,52)         75.7312         estimate D2E/DX2                !
 ! D131  D(40,36,41,53)        -42.9427         estimate D2E/DX2                !
 ! D132  D(46,38,39,35)        -43.0722         estimate D2E/DX2                !
 ! D133  D(46,38,39,42)       -169.8596         estimate D2E/DX2                !
 ! D134  D(46,38,39,43)         73.9213         estimate D2E/DX2                !
 ! D135  D(47,38,39,35)       -161.3598         estimate D2E/DX2                !
 ! D136  D(47,38,39,42)         71.8528         estimate D2E/DX2                !
 ! D137  D(47,38,39,43)        -44.3663         estimate D2E/DX2                !
 ! D138  D(61,38,39,35)         78.9824         estimate D2E/DX2                !
 ! D139  D(61,38,39,42)        -47.8051         estimate D2E/DX2                !
 ! D140  D(61,38,39,43)       -164.0241         estimate D2E/DX2                !
 ! D141  D(35,39,42,54)        173.0274         estimate D2E/DX2                !
 ! D142  D(35,39,42,55)         54.0427         estimate D2E/DX2                !
 ! D143  D(35,39,42,56)        -67.7077         estimate D2E/DX2                !
 ! D144  D(38,39,42,54)        -63.3056         estimate D2E/DX2                !
 ! D145  D(38,39,42,55)        177.7098         estimate D2E/DX2                !
 ! D146  D(38,39,42,56)         55.9593         estimate D2E/DX2                !
 ! D147  D(43,39,42,54)         51.7889         estimate D2E/DX2                !
 ! D148  D(43,39,42,55)        -67.1957         estimate D2E/DX2                !
 ! D149  D(43,39,42,56)        171.0538         estimate D2E/DX2                !
 ! D150  D(35,39,43,57)        -59.8369         estimate D2E/DX2                !
 ! D151  D(35,39,43,58)       -179.5689         estimate D2E/DX2                !
 ! D152  D(35,39,43,59)         61.8734         estimate D2E/DX2                !
 ! D153  D(38,39,43,57)       -176.6639         estimate D2E/DX2                !
 ! D154  D(38,39,43,58)         63.6041         estimate D2E/DX2                !
 ! D155  D(38,39,43,59)        -54.9536         estimate D2E/DX2                !
 ! D156  D(42,39,43,57)         64.6797         estimate D2E/DX2                !
 ! D157  D(42,39,43,58)        -55.0523         estimate D2E/DX2                !
 ! D158  D(42,39,43,59)       -173.6101         estimate D2E/DX2                !
 --------------------------------------------------------------------------------
 Trust Radius=3.00D-01 FncErr=1.00D-07 GrdErr=1.00D-06 EigMax=2.50D+02 EigMin=1.00D-04
 Number of steps in this run=    342 maximum allowed number of steps=    366.
 GradGradGradGradGradGradGradGradGradGradGradGradGradGradGradGradGradGrad

 Leave Link  103 at Wed Jan  8 07:29:21 2025, MaxMem=  4026531840 cpu:               0.4 elap:               2.5
 (Enter /usr/local/intel/g16/l202.exe)
 Stoichiometry    C24H35NO
 Framework group  C1[X(C24H35NO)]
 Deg. of freedom   177
 Full point group                 C1      NOp   1
 Largest Abelian subgroup         C1      NOp   1
 Largest concise Abelian subgroup C1      NOp   1
                         Standard orientation:                         
 ---------------------------------------------------------------------
 Center     Atomic      Atomic             Coordinates (Angstroms)
 Number     Number       Type             X           Y           Z
 ---------------------------------------------------------------------
      1          6           0        3.048357   -2.091028   -2.002611
      2          6           0        3.668633   -3.055864   -1.193702
      3          6           0        3.117791   -3.364275    0.059379
      4          6           0        1.964099   -2.703891    0.503846
      5          6           0        1.341780   -1.726924   -0.292374
      6          6           0        1.891489   -1.439695   -1.554551
      7          6           0        0.111146   -0.958956    0.158863
      8          6           0       -2.025614   -0.953279    1.626274
      9          6           0       -2.954007   -0.644857    0.458831
     10          6           0       -3.144498   -1.549143   -0.602591
     11          6           0       -4.025538   -1.252187   -1.652282
     12          6           0       -4.741538   -0.045249   -1.654294
     13          6           0       -4.570541    0.858488   -0.594659
     14          6           0       -3.683677    0.557625    0.448092
     15          6           0       -2.778253   -1.791211    2.685953
     16          1           0        3.463933   -1.848385   -2.975331
     17          1           0        4.564712   -3.563087   -1.536514
     18          1           0        3.587674   -4.113058    0.688982
     19          1           0        1.563401   -2.949493    1.481439
     20          1           0        1.422226   -0.681358   -2.171323
     21          1           0       -0.507757   -0.780145   -0.724331
     22          1           0       -1.740971    0.000667    2.084258
     23          1           0       -2.598773   -2.488154   -0.619777
     24          1           0       -4.152241   -1.959007   -2.466227
     25          1           0       -5.421447    0.186231   -2.467636
     26          1           0       -5.119251    1.794839   -0.584226
     27          1           0       -3.546718    1.267940    1.259151
     28          1           0       -2.139619   -1.980806    3.556886
     29          1           0       -3.084310   -2.757445    2.266557
     30          1           0       -3.680177   -1.271607    3.025771
     31          6           0       -0.718732   -1.673307    1.230065
     32          1           0       -0.936007   -2.691704    0.882170
     33          1           0       -0.114917   -1.771075    2.140671
     34          8           0        0.408415    0.352930    0.775470
     35          7           0        1.161253    1.279512   -0.080840
     36          6           0        0.157773    2.314475   -0.566386
     37          6           0        0.860440    3.468876   -1.309113
     38          6           0        3.473601    2.188110   -0.331142
     39          6           0        2.415424    1.682657    0.680658
     40          6           0       -0.755210    1.613812   -1.601529
     41          6           0       -0.748072    2.893374    0.551806
     42          6           0        2.175733    2.722820    1.801854
     43          6           0        3.033161    0.426818    1.337391
     44          1           0        1.501898    3.092038   -2.111395
     45          1           0        1.451646    4.103254   -0.645060
     46          1           0        3.491217    1.523573   -1.200745
     47          1           0        4.460852    2.161585    0.144057
     48          1           0       -1.448864    0.917756   -1.126803
     49          1           0       -0.152667    1.079098   -2.342942
     50          1           0       -1.362732    2.362314   -2.122933
     51          1           0       -0.239105    3.648145    1.155574
     52          1           0       -1.087810    2.087322    1.205558
     53          1           0       -1.627138    3.362677    0.094516
     54          1           0        3.100918    2.859386    2.373519
     55          1           0        1.397280    2.370782    2.486355
     56          1           0        1.885341    3.701831    1.410609
     57          1           0        2.339615   -0.047721    2.032910
     58          1           0        3.930070    0.731986    1.888244
     59          1           0        3.330458   -0.303396    0.581673
     60          1           0        0.086987    4.101595   -1.758024
     61          1           0        3.303715    3.210253   -0.670170
 ---------------------------------------------------------------------
 Rotational constants (GHZ):           0.2618811           0.1672386           0.1323600
 Leave Link  202 at Wed Jan  8 07:29:23 2025, MaxMem=  4026531840 cpu:               0.1 elap:               1.4
 (Enter /usr/local/intel/g16/l301.exe)
 Standard basis: def2TZVP (5D, 7F)
 Ernie: Thresh=  0.10000D-02 Tol=  0.10000D-05 Strict=F.
 There are  1146 symmetry adapted cartesian basis functions of A   symmetry.
 There are  1016 symmetry adapted basis functions of A   symmetry.
  1016 basis functions,  1606 primitive gaussians,  1146 cartesian basis functions
    97 alpha electrons       97 beta electrons
       nuclear repulsion energy      2546.7387418266 Hartrees.
 IExCor= 4336 DFT=T Ex+Corr=M062X ExCW=0 ScaHFX=  0.540000
 ScaDFX=  1.000000  1.000000  1.000000  1.000000 ScalE2=  1.000000  1.000000
 IRadAn=      5 IRanWt=     -1 IRanGd=            0 ICorTp=0 IEmpDi=  4
 NAtoms=   61 NActive=   61 NUniq=   61 SFac= 1.00D+00 NAtFMM=   60 NAOKFM=T Big=T
 Integral buffers will be    131072 words long.
 Raffenetti 2 integral format.
 Two-electron integral symmetry is turned on.
 Leave Link  301 at Wed Jan  8 07:29:25 2025, MaxMem=  4026531840 cpu:               1.5 elap:               0.1
 (Enter /usr/local/intel/g16/l302.exe)
 NPDir=0 NMtPBC=     1 NCelOv=     1 NCel=       1 NClECP=     1 NCelD=      1
         NCelK=      1 NCelE2=     1 NClLst=     1 CellRange=     0.0.
 One-electron integrals computed using PRISM.
 One-electron integral symmetry used in STVInt
   1 Symmetry operations used in ECPInt.
 ECPInt:  NShTT=   90951 NPrTT=  267492 LenC2=   80013 LenP2D=  165730.
 LDataN:  DoStor=T MaxTD1= 6 Len=  172
 NBasis=  1016 RedAO= T EigKep=  7.07D-06  NBF=  1016
 NBsUse=  1016 1.00D-06 EigRej= -1.00D+00 NBFU=  1016
 Precomputing XC quadrature grid using
 IXCGrd= 4 IRadAn=           5 IRanWt=          -1 IRanGd=           0 AccXCQ= 0.00D+00.
 Generated NRdTot=       0 NPtTot=           0 NUsed=           0 NTot=          32
 NSgBfM=  1132  1132  1132  1132  1132 MxSgAt=    61 MxSgA2=    61.
 Leave Link  302 at Wed Jan  8 07:29:33 2025, MaxMem=  4026531840 cpu:             127.1 elap:               7.1
 (Enter /usr/local/intel/g16/l303.exe)
 DipDrv:  MaxL=1.
 Leave Link  303 at Wed Jan  8 07:29:36 2025, MaxMem=  4026531840 cpu:               8.6 elap:               0.5
 (Enter /usr/local/intel/g16/l401.exe)
 ExpMin= 9.52D-02 ExpMax= 2.70D+04 ExpMxC= 9.22D+02 IAcc=3 IRadAn=         5 AccDes= 0.00D+00
 Harris functional with IExCor= 1009 and IRadAn=       5 diagonalized for initial guess.
 HarFok:  IExCor= 1009 AccDes= 0.00D+00 IRadAn=         5 IDoV= 1 UseB2=F ITyADJ=14
 ICtDFT=  3500011 ScaDFX=  1.000000  1.000000  1.000000  1.000000
 FoFCou: FMM=F IPFlag=           0 FMFlag=      100000 FMFlg1=        2001
         NFxFlg=           0 DoJE=T BraDBF=F KetDBF=T FulRan=T
         wScrn=  0.000000 ICntrl=       500 IOpCl=  0 I1Cent=   200000004 NGrid=           0
         NMat0=    1 NMatS0=      1 NMatT0=    0 NMatD0=    1 NMtDS0=    0 NMtDT0=    0
 Petite list used in FoFCou.
 Harris En= -1065.09935685152    
 JPrj=0 DoOrth=F DoCkMO=F.
 Leave Link  401 at Wed Jan  8 07:29:49 2025, MaxMem=  4026531840 cpu:             214.4 elap:              12.0
 (Enter /usr/local/intel/g16/l502.exe)
 Integral symmetry usage will be decided dynamically.
 Closed shell SCF:
 Using DIIS extrapolation, IDIIS=  1040.
 NGot=  4026531840 LenX=  4023870510 LenY=  4022556048
 Requested convergence on RMS density matrix=1.00D-08 within 128 cycles.
 Requested convergence on MAX density matrix=1.00D-06.
 Requested convergence on             energy=1.00D-06.
 No special actions if energy rises.
 Fock matrices will be formed incrementally for  20 cycles.
 Integral accuracy reduced to 1.0D-05 until final iterations.

 Cycle   1  Pass 0  IDiag  1:
 FoFJK:  IHMeth= 1 ICntrl=       0 DoSepK=F KAlg= 0 I1Cent=           0 FoldK=F
 IRaf= 930000000 NMat=       1 IRICut=       1 DoRegI=T DoRafI=F ISym2E= 0 IDoP0=0 IntGTp=1.
 FoFCou: FMM=T IPFlag=           0 FMFlag=      100000 FMFlg1=        2001
         NFxFlg=           0 DoJE=F BraDBF=F KetDBF=F FulRan=T
         wScrn=  0.000000 ICntrl=         0 IOpCl=  0 I1Cent=           0 NGrid=           0
         NMat0=    1 NMatS0=      1 NMatT0=    0 NMatD0=    1 NMtDS0=    0 NMtDT0=    0
 Symmetry not used in FoFCou.
 FMM levels:  10  Number of levels for PrismC:   9
 E= -1064.61706228378    
 DIIS: error= 2.07D-02 at cycle   1 NSaved=   1.
 NSaved= 1 IEnMin= 1 EnMin= -1064.61706228378     IErMin= 1 ErrMin= 2.07D-02
 ErrMax= 2.07D-02  0.00D+00 EMaxC= 1.00D-01 BMatC= 9.38D-01 BMatP= 9.38D-01
 IDIUse=3 WtCom= 7.93D-01 WtEn= 2.07D-01
 Coeff-Com:  0.100D+01
 Coeff-En:   0.100D+01
 Coeff:      0.100D+01
 Gap=     0.358 Goal=   None    Shift=    0.000
 GapD=    0.358 DampG=1.000 DampE=0.500 DampFc=0.5000 IDamp=-1.
 Damping current iteration by 5.00D-01
 RMSDP=1.02D+02 MaxDP=9.33D+03              OVMax= 9.95D-01

 Problem detected with inexpensive integrals.
 Switching to full accuracy and repeating last cycle.
 Cycle   2  Pass 1  IDiag  1:
 E= -1064.61707629993     Delta-E=       -0.000014016155 Rises=F Damp=F
 DIIS: error= 2.07D-02 at cycle   1 NSaved=   1.
 NSaved= 1 IEnMin= 1 EnMin= -1064.61707629993     IErMin= 1 ErrMin= 2.07D-02
 ErrMax= 2.07D-02  0.00D+00 EMaxC= 1.00D-01 BMatC= 9.38D-01 BMatP= 9.38D-01
 IDIUse=3 WtCom= 7.93D-01 WtEn= 2.07D-01
 Coeff-Com:  0.100D+01
 Coeff-En:   0.100D+01
 Coeff:      0.100D+01
 Gap=     0.358 Goal=   None    Shift=    0.000
 GapD=    0.358 DampG=1.000 DampE=0.500 DampFc=0.5000 IDamp=-1.
 Damping current iteration by 5.00D-01
 RMSDP=1.90D-03 MaxDP=1.33D-01 DE=-1.40D-05 OVMax= 1.45D-01

 Cycle   3  Pass 1  IDiag  1:
 RMSU=  9.25D-04    CP:  9.58D-01
 E= -1065.05282133386     Delta-E=       -0.435745033933 Rises=F Damp=T
 DIIS: error= 3.93D-03 at cycle   2 NSaved=   2.
 NSaved= 2 IEnMin= 2 EnMin= -1065.05282133386     IErMin= 2 ErrMin= 3.93D-03
 ErrMax= 3.93D-03  0.00D+00 EMaxC= 1.00D-01 BMatC= 6.35D-02 BMatP= 9.38D-01
 IDIUse=3 WtCom= 9.61D-01 WtEn= 3.93D-02
 Coeff-Com: -0.138D+00 0.114D+01
 Coeff-En:   0.000D+00 0.100D+01
 Coeff:     -0.132D+00 0.113D+01
 Gap=     0.367 Goal=   None    Shift=    0.000
 GapD=    0.367 DampG=1.000 DampE=1.000 DampFc=1.0000 IDamp=-1.
 RMSDP=9.87D-04 MaxDP=9.32D-02 DE=-4.36D-01 OVMax= 7.74D-02

 Cycle   4  Pass 1  IDiag  1:
 RMSU=  9.20D-04    CP:  9.37D-01  1.37D+00
 E= -1065.44836058946     Delta-E=       -0.395539255600 Rises=F Damp=F
 DIIS: error= 2.22D-03 at cycle   3 NSaved=   3.
 NSaved= 3 IEnMin= 3 EnMin= -1065.44836058946     IErMin= 3 ErrMin= 2.22D-03
 ErrMax= 2.22D-03  0.00D+00 EMaxC= 1.00D-01 BMatC= 9.14D-03 BMatP= 6.35D-02
 IDIUse=3 WtCom= 9.78D-01 WtEn= 2.22D-02
 Coeff-Com: -0.795D-01 0.291D+00 0.788D+00
 Coeff-En:   0.000D+00 0.000D+00 0.100D+01
 Coeff:     -0.778D-01 0.285D+00 0.793D+00
 Gap=     0.299 Goal=   None    Shift=    0.000
 RMSDP=1.59D-04 MaxDP=2.01D-02 DE=-3.96D-01 OVMax= 2.11D-02

 Cycle   5  Pass 1  IDiag  1:
 RMSU=  1.49D-04    CP:  9.33D-01  1.40D+00  9.49D-01
 E= -1065.45491448172     Delta-E=       -0.006553892258 Rises=F Damp=F
 DIIS: error= 1.25D-03 at cycle   4 NSaved=   4.
 NSaved= 4 IEnMin= 4 EnMin= -1065.45491448172     IErMin= 4 ErrMin= 1.25D-03
 ErrMax= 1.25D-03  0.00D+00 EMaxC= 1.00D-01 BMatC= 2.24D-03 BMatP= 9.14D-03
 IDIUse=3 WtCom= 9.87D-01 WtEn= 1.25D-02
 Coeff-Com: -0.301D-01 0.804D-01 0.385D+00 0.565D+00
 Coeff-En:   0.000D+00 0.000D+00 0.883D-01 0.912D+00
 Coeff:     -0.297D-01 0.794D-01 0.381D+00 0.569D+00
 Gap=     0.287 Goal=   None    Shift=    0.000
 RMSDP=5.83D-05 MaxDP=7.80D-03 DE=-6.55D-03 OVMax= 9.52D-03

 Cycle   6  Pass 1  IDiag  1:
 RMSU=  4.16D-05    CP:  9.33D-01  1.41D+00  9.59D-01  7.38D-01
 E= -1065.45665644863     Delta-E=       -0.001741966914 Rises=F Damp=F
 DIIS: error= 2.39D-04 at cycle   5 NSaved=   5.
 NSaved= 5 IEnMin= 5 EnMin= -1065.45665644863     IErMin= 5 ErrMin= 2.39D-04
 ErrMax= 2.39D-04  0.00D+00 EMaxC= 1.00D-01 BMatC= 1.29D-04 BMatP= 2.24D-03
 IDIUse=3 WtCom= 9.98D-01 WtEn= 2.39D-03
 Coeff-Com: -0.663D-02 0.132D-01 0.106D+00 0.250D+00 0.637D+00
 Coeff-En:   0.000D+00 0.000D+00 0.000D+00 0.000D+00 0.100D+01
 Coeff:     -0.662D-02 0.131D-01 0.105D+00 0.250D+00 0.638D+00
 Gap=     0.290 Goal=   None    Shift=    0.000
 RMSDP=1.88D-05 MaxDP=1.19D-03 DE=-1.74D-03 OVMax= 2.71D-03

 Cycle   7  Pass 1  IDiag  1:
 RMSU=  1.51D-05    CP:  9.33D-01  1.41D+00  9.62D-01  7.66D-01  7.70D-01
 E= -1065.45675926055     Delta-E=       -0.000102811912 Rises=F Damp=F
 DIIS: error= 8.04D-05 at cycle   6 NSaved=   6.
 NSaved= 6 IEnMin= 6 EnMin= -1065.45675926055     IErMin= 6 ErrMin= 8.04D-05
 ErrMax= 8.04D-05  0.00D+00 EMaxC= 1.00D-01 BMatC= 1.28D-05 BMatP= 1.29D-04
 IDIUse=1 WtCom= 1.00D+00 WtEn= 0.00D+00
 Coeff-Com: -0.765D-03 0.610D-04 0.223D-01 0.775D-01 0.306D+00 0.594D+00
 Coeff:     -0.765D-03 0.610D-04 0.223D-01 0.775D-01 0.306D+00 0.594D+00
 Gap=     0.289 Goal=   None    Shift=    0.000
 RMSDP=5.28D-06 MaxDP=6.65D-04 DE=-1.03D-04 OVMax= 8.17D-04

 Cycle   8  Pass 1  IDiag  1:
 RMSU=  4.63D-06    CP:  9.33D-01  1.41D+00  9.63D-01  7.65D-01  8.27D-01
                    CP:  9.73D-01
 E= -1065.45677048047     Delta-E=       -0.000011219925 Rises=F Damp=F
 DIIS: error= 2.15D-05 at cycle   7 NSaved=   7.
 NSaved= 7 IEnMin= 7 EnMin= -1065.45677048047     IErMin= 7 ErrMin= 2.15D-05
 ErrMax= 2.15D-05  0.00D+00 EMaxC= 1.00D-01 BMatC= 1.04D-06 BMatP= 1.28D-05
 IDIUse=1 WtCom= 1.00D+00 WtEn= 0.00D+00
 Coeff-Com:  0.862D-03-0.225D-02-0.934D-02-0.139D-01 0.579D-02 0.222D+00
 Coeff-Com:  0.797D+00
 Coeff:      0.862D-03-0.225D-02-0.934D-02-0.139D-01 0.579D-02 0.222D+00
 Coeff:      0.797D+00
 Gap=     0.289 Goal=   None    Shift=    0.000
 RMSDP=2.09D-06 MaxDP=9.31D-05 DE=-1.12D-05 OVMax= 2.37D-04

 Cycle   9  Pass 1  IDiag  1:
 RMSU=  1.55D-06    CP:  9.33D-01  1.41D+00  9.63D-01  7.69D-01  8.42D-01
                    CP:  1.03D+00  8.59D-01
 E= -1065.45677139561     Delta-E=       -0.000000915142 Rises=F Damp=F
 DIIS: error= 6.12D-06 at cycle   8 NSaved=   8.
 NSaved= 8 IEnMin= 8 EnMin= -1065.45677139561     IErMin= 8 ErrMin= 6.12D-06
 ErrMax= 6.12D-06  0.00D+00 EMaxC= 1.00D-01 BMatC= 1.54D-07 BMatP= 1.04D-06
 IDIUse=1 WtCom= 1.00D+00 WtEn= 0.00D+00
 Coeff-Com:  0.454D-03-0.104D-02-0.605D-02-0.122D-01-0.182D-01 0.668D-01
 Coeff-Com:  0.384D+00 0.587D+00
 Coeff:      0.454D-03-0.104D-02-0.605D-02-0.122D-01-0.182D-01 0.668D-01
 Coeff:      0.384D+00 0.587D+00
 Gap=     0.289 Goal=   None    Shift=    0.000
 RMSDP=6.63D-07 MaxDP=4.58D-05 DE=-9.15D-07 OVMax= 9.82D-05

 Cycle  10  Pass 1  IDiag  1:
 RMSU=  4.40D-07    CP:  9.33D-01  1.41D+00  9.63D-01  7.70D-01  8.39D-01
                    CP:  1.05D+00  9.25D-01  9.00D-01
 E= -1065.45677152916     Delta-E=       -0.000000133548 Rises=F Damp=F
 DIIS: error= 1.68D-06 at cycle   9 NSaved=   9.
 NSaved= 9 IEnMin= 9 EnMin= -1065.45677152916     IErMin= 9 ErrMin= 1.68D-06
 ErrMax= 1.68D-06  0.00D+00 EMaxC= 1.00D-01 BMatC= 9.62D-09 BMatP= 1.54D-07
 IDIUse=1 WtCom= 1.00D+00 WtEn= 0.00D+00
 Coeff-Com:  0.552D-04-0.113D-03-0.108D-02-0.281D-02-0.674D-02-0.808D-03
 Coeff-Com:  0.417D-01 0.213D+00 0.757D+00
 Coeff:      0.552D-04-0.113D-03-0.108D-02-0.281D-02-0.674D-02-0.808D-03
 Coeff:      0.417D-01 0.213D+00 0.757D+00
 Gap=     0.289 Goal=   None    Shift=    0.000
 RMSDP=2.08D-07 MaxDP=2.73D-05 DE=-1.34D-07 OVMax= 2.79D-05

 Cycle  11  Pass 1  IDiag  1:
 RMSU=  1.76D-07    CP:  9.33D-01  1.41D+00  9.63D-01  7.69D-01  8.40D-01
                    CP:  1.04D+00  9.19D-01  9.51D-01  9.69D-01
 E= -1065.45677153805     Delta-E=       -0.000000008893 Rises=F Damp=F
 DIIS: error= 8.74D-07 at cycle  10 NSaved=  10.
 NSaved=10 IEnMin=10 EnMin= -1065.45677153805     IErMin=10 ErrMin= 8.74D-07
 ErrMax= 8.74D-07  0.00D+00 EMaxC= 1.00D-01 BMatC= 1.02D-09 BMatP= 9.62D-09
 IDIUse=1 WtCom= 1.00D+00 WtEn= 0.00D+00
 Coeff-Com: -0.160D-04 0.400D-04 0.695D-04-0.911D-04-0.963D-03-0.522D-02
 Coeff-Com: -0.171D-01 0.350D-01 0.296D+00 0.693D+00
 Coeff:     -0.160D-04 0.400D-04 0.695D-04-0.911D-04-0.963D-03-0.522D-02
 Coeff:     -0.171D-01 0.350D-01 0.296D+00 0.693D+00
 Gap=     0.289 Goal=   None    Shift=    0.000
 RMSDP=7.11D-08 MaxDP=1.30D-05 DE=-8.89D-09 OVMax= 1.14D-05

 Cycle  12  Pass 1  IDiag  1:
 RMSU=  5.20D-08    CP:  9.33D-01  1.41D+00  9.63D-01  7.69D-01  8.40D-01
                    CP:  1.04D+00  9.19D-01  9.69D-01  1.03D+00  9.34D-01
 E= -1065.45677153922     Delta-E=       -0.000000001168 Rises=F Damp=F
 DIIS: error= 3.85D-07 at cycle  11 NSaved=  11.
 NSaved=11 IEnMin=11 EnMin= -1065.45677153922     IErMin=11 ErrMin= 3.85D-07
 ErrMax= 3.85D-07  0.00D+00 EMaxC= 1.00D-01 BMatC= 1.41D-10 BMatP= 1.02D-09
 IDIUse=1 WtCom= 1.00D+00 WtEn= 0.00D+00
 Coeff-Com: -0.123D-04 0.288D-04 0.153D-03 0.286D-03 0.441D-03-0.163D-02
 Coeff-Com: -0.115D-01-0.120D-01 0.142D-01 0.276D+00 0.734D+00
 Coeff:     -0.123D-04 0.288D-04 0.153D-03 0.286D-03 0.441D-03-0.163D-02
 Coeff:     -0.115D-01-0.120D-01 0.142D-01 0.276D+00 0.734D+00
 Gap=     0.289 Goal=   None    Shift=    0.000
 RMSDP=2.29D-08 MaxDP=1.84D-06 DE=-1.17D-09 OVMax= 4.73D-06

 Cycle  13  Pass 1  IDiag  1:
 RMSU=  1.72D-08    CP:  9.33D-01  1.41D+00  9.63D-01  7.69D-01  8.40D-01
                    CP:  1.04D+00  9.19D-01  9.75D-01  1.04D+00  9.96D-01
                    CP:  1.00D+00
 E= -1065.45677153936     Delta-E=       -0.000000000140 Rises=F Damp=F
 DIIS: error= 1.74D-07 at cycle  12 NSaved=  12.
 NSaved=12 IEnMin=12 EnMin= -1065.45677153936     IErMin=12 ErrMin= 1.74D-07
 ErrMax= 1.74D-07  0.00D+00 EMaxC= 1.00D-01 BMatC= 2.08D-11 BMatP= 1.41D-10
 IDIUse=1 WtCom= 1.00D+00 WtEn= 0.00D+00
 Coeff-Com: -0.282D-05 0.665D-05 0.539D-04 0.123D-03 0.281D-03-0.808D-04
 Coeff-Com: -0.305D-02-0.904D-02-0.301D-01 0.376D-01 0.319D+00 0.686D+00
 Coeff:     -0.282D-05 0.665D-05 0.539D-04 0.123D-03 0.281D-03-0.808D-04
 Coeff:     -0.305D-02-0.904D-02-0.301D-01 0.376D-01 0.319D+00 0.686D+00
 Gap=     0.289 Goal=   None    Shift=    0.000
 RMSDP=8.80D-09 MaxDP=6.07D-07 DE=-1.40D-10 OVMax= 1.96D-06

 SCF Done:  E(RM062X) =  -1065.45677154     A.U. after   13 cycles
            NFock= 13  Conv=0.88D-08     -V/T= 2.0061
 KE= 1.058964881141D+03 PE=-7.565776859183D+03 EE= 2.894616464676D+03
 Leave Link  502 at Wed Jan  8 07:56:37 2025, MaxMem=  4026531840 cpu:           32054.1 elap:            1606.2
 (Enter /usr/local/intel/g16/l601.exe)
 Copying SCF densities to generalized density rwf, IOpCl= 0 IROHF=0.

 **********************************************************************

            Population analysis using the SCF Density.

 **********************************************************************

 Orbital symmetries:
       Occupied  (A) (A) (A) (A) (A) (A) (A) (A) (A) (A) (A) (A)
                 (A) (A) (A) (A) (A) (A) (A) (A) (A) (A) (A) (A)
                 (A) (A) (A) (A) (A) (A) (A) (A) (A) (A) (A) (A)
                 (A) (A) (A) (A) (A) (A) (A) (A) (A) (A) (A) (A)
                 (A) (A) (A) (A) (A) (A) (A) (A) (A) (A) (A) (A)
                 (A) (A) (A) (A) (A) (A) (A) (A) (A) (A) (A) (A)
                 (A) (A) (A) (A) (A) (A) (A) (A) (A) (A) (A) (A)
                 (A) (A) (A) (A) (A) (A) (A) (A) (A) (A) (A) (A)
                 (A)
       Virtual   (A) (A) (A) (A) (A) (A) (A) (A) (A) (A) (A) (A)
                 (A) (A) (A) (A) (A) (A) (A) (A) (A) (A) (A) (A)
                 (A) (A) (A) (A) (A) (A) (A) (A) (A) (A) (A) (A)
                 (A) (A) (A) (A) (A) (A) (A) (A) (A) (A) (A) (A)
                 (A) (A) (A) (A) (A) (A) (A) (A) (A) (A) (A) (A)
                 (A) (A) (A) (A) (A) (A) (A) (A) (A) (A) (A) (A)
                 (A) (A) (A) (A) (A) (A) (A) (A) (A) (A) (A) (A)
                 (A) (A) (A) (A) (A) (A) (A) (A) (A) (A) (A) (A)
                 (A) (A) (A) (A) (A) (A) (A) (A) (A) (A) (A) (A)
                 (A) (A) (A) (A) (A) (A) (A) (A) (A) (A) (A) (A)
                 (A) (A) (A) (A) (A) (A) (A) (A) (A) (A) (A) (A)
                 (A) (A) (A) (A) (A) (A) (A) (A) (A) (A) (A) (A)
                 (A) (A) (A) (A) (A) (A) (A) (A) (A) (A) (A) (A)
                 (A) (A) (A) (A) (A) (A) (A) (A) (A) (A) (A) (A)
                 (A) (A) (A) (A) (A) (A) (A) (A) (A) (A) (A) (A)
                 (A) (A) (A) (A) (A) (A) (A) (A) (A) (A) (A) (A)
                 (A) (A) (A) (A) (A) (A) (A) (A) (A) (A) (A) (A)
                 (A) (A) (A) (A) (A) (A) (A) (A) (A) (A) (A) (A)
                 (A) (A) (A) (A) (A) (A) (A) (A) (A) (A) (A) (A)
                 (A) (A) (A) (A) (A) (A) (A) (A) (A) (A) (A) (A)
                 (A) (A) (A) (A) (A) (A) (A) (A) (A) (A) (A) (A)
                 (A) (A) (A) (A) (A) (A) (A) (A) (A) (A) (A) (A)
                 (A) (A) (A) (A) (A) (A) (A) (A) (A) (A) (A) (A)
                 (A) (A) (A) (A) (A) (A) (A) (A) (A) (A) (A) (A)
                 (A) (A) (A) (A) (A) (A) (A) (A) (A) (A) (A) (A)
                 (A) (A) (A) (A) (A) (A) (A) (A) (A) (A) (A) (A)
                 (A) (A) (A) (A) (A) (A) (A) (A) (A) (A) (A) (A)
                 (A) (A) (A) (A) (A) (A) (A) (A) (A) (A) (A) (A)
                 (A) (A) (A) (A) (A) (A) (A) (A) (A) (A) (A) (A)
                 (A) (A) (A) (A) (A) (A) (A) (A) (A) (A) (A) (A)
                 (A) (A) (A) (A) (A) (A) (A) (A) (A) (A) (A) (A)
                 (A) (A) (A) (A) (A) (A) (A) (A) (A) (A) (A) (A)
                 (A) (A) (A) (A) (A) (A) (A) (A) (A) (A) (A) (A)
                 (A) (A) (A) (A) (A) (A) (A) (A) (A) (A) (A) (A)
                 (A) (A) (A) (A) (A) (A) (A) (A) (A) (A) (A) (A)
                 (A) (A) (A) (A) (A) (A) (A) (A) (A) (A) (A) (A)
                 (A) (A) (A) (A) (A) (A) (A) (A) (A) (A) (A) (A)
                 (A) (A) (A) (A) (A) (A) (A) (A) (A) (A) (A) (A)
                 (A) (A) (A) (A) (A) (A) (A) (A) (A) (A) (A) (A)
                 (A) (A) (A) (A) (A) (A) (A) (A) (A) (A) (A) (A)
                 (A) (A) (A) (A) (A) (A) (A) (A) (A) (A) (A) (A)
                 (A) (A) (A) (A) (A) (A) (A) (A) (A) (A) (A) (A)
                 (A) (A) (A) (A) (A) (A) (A) (A) (A) (A) (A) (A)
                 (A) (A) (A) (A) (A) (A) (A) (A) (A) (A) (A) (A)
                 (A) (A) (A) (A) (A) (A) (A) (A) (A) (A) (A) (A)
                 (A) (A) (A) (A) (A) (A) (A) (A) (A) (A) (A) (A)
                 (A) (A) (A) (A) (A) (A) (A) (A) (A) (A) (A) (A)
                 (A) (A) (A) (A) (A) (A) (A) (A) (A) (A) (A) (A)
                 (A) (A) (A) (A) (A) (A) (A) (A) (A) (A) (A) (A)
                 (A) (A) (A) (A) (A) (A) (A) (A) (A) (A) (A) (A)
                 (A) (A) (A) (A) (A) (A) (A) (A) (A) (A) (A) (A)
                 (A) (A) (A) (A) (A) (A) (A) (A) (A) (A) (A) (A)
                 (A) (A) (A) (A) (A) (A) (A) (A) (A) (A) (A) (A)
                 (A) (A) (A) (A) (A) (A) (A) (A) (A) (A) (A) (A)
                 (A) (A) (A) (A) (A) (A) (A) (A) (A) (A) (A) (A)
                 (A) (A) (A) (A) (A) (A) (A) (A) (A) (A) (A) (A)
                 (A) (A) (A) (A) (A) (A) (A) (A) (A) (A) (A) (A)
                 (A) (A) (A) (A) (A) (A) (A) (A) (A) (A) (A) (A)
                 (A) (A) (A) (A) (A) (A) (A) (A) (A) (A) (A) (A)
                 (A) (A) (A) (A) (A) (A) (A) (A) (A) (A) (A) (A)
                 (A) (A) (A) (A) (A) (A) (A) (A) (A) (A) (A) (A)
                 (A) (A) (A) (A) (A) (A) (A) (A) (A) (A) (A) (A)
                 (A) (A) (A) (A) (A) (A) (A) (A) (A) (A) (A) (A)
                 (A) (A) (A) (A) (A) (A) (A) (A) (A) (A) (A) (A)
                 (A) (A) (A) (A) (A) (A) (A) (A) (A) (A) (A) (A)
                 (A) (A) (A) (A) (A) (A) (A) (A) (A) (A) (A) (A)
                 (A) (A) (A) (A) (A) (A) (A) (A) (A) (A) (A) (A)
                 (A) (A) (A) (A) (A) (A) (A) (A) (A) (A) (A) (A)
                 (A) (A) (A) (A) (A) (A) (A) (A) (A) (A) (A) (A)
                 (A) (A) (A) (A) (A) (A) (A) (A) (A) (A) (A) (A)
                 (A) (A) (A) (A) (A) (A) (A) (A) (A) (A) (A) (A)
                 (A) (A) (A) (A) (A) (A) (A) (A) (A) (A) (A) (A)
                 (A) (A) (A) (A) (A) (A) (A) (A) (A) (A) (A) (A)
                 (A) (A) (A) (A) (A) (A) (A) (A) (A) (A) (A) (A)
                 (A) (A) (A) (A) (A) (A) (A) (A) (A) (A) (A) (A)
                 (A) (A) (A) (A) (A) (A) (A) (A) (A) (A) (A) (A)
                 (A) (A) (A) (A) (A) (A) (A)
 The electronic state is 1-A.
 Alpha  occ. eigenvalues --  -19.64224 -14.78047 -10.58861 -10.57530 -10.57359
 Alpha  occ. eigenvalues --  -10.55022 -10.54642 -10.54601 -10.54529 -10.54456
 Alpha  occ. eigenvalues --  -10.54436 -10.54336 -10.54299 -10.54273 -10.54272
 Alpha  occ. eigenvalues --  -10.54215 -10.54138 -10.53973 -10.53752 -10.52720
 Alpha  occ. eigenvalues --  -10.52306 -10.51677 -10.51576 -10.51281 -10.51279
 Alpha  occ. eigenvalues --  -10.50793  -1.15693  -0.97293  -0.95918  -0.95212
 Alpha  occ. eigenvalues --   -0.90564  -0.89898  -0.86683  -0.83917  -0.83837
 Alpha  occ. eigenvalues --   -0.82846  -0.82026  -0.78978  -0.77878  -0.77215
 Alpha  occ. eigenvalues --   -0.76311  -0.75894  -0.72504  -0.70335  -0.68798
 Alpha  occ. eigenvalues --   -0.68125  -0.65618  -0.64773  -0.63672  -0.60423
 Alpha  occ. eigenvalues --   -0.58693  -0.58215  -0.56056  -0.54883  -0.53872
 Alpha  occ. eigenvalues --   -0.53424  -0.52412  -0.52205  -0.51231  -0.50548
 Alpha  occ. eigenvalues --   -0.50411  -0.50007  -0.49140  -0.48735  -0.48366
 Alpha  occ. eigenvalues --   -0.48143  -0.47922  -0.47467  -0.46255  -0.45874
 Alpha  occ. eigenvalues --   -0.45575  -0.44481  -0.44031  -0.43696  -0.43377
 Alpha  occ. eigenvalues --   -0.43238  -0.42947  -0.42638  -0.42002  -0.41552
 Alpha  occ. eigenvalues --   -0.41376  -0.41058  -0.40771  -0.39891  -0.39502
 Alpha  occ. eigenvalues --   -0.39027  -0.38078  -0.38007  -0.37618  -0.36463
 Alpha  occ. eigenvalues --   -0.36156  -0.33233  -0.30600  -0.30585  -0.29945
 Alpha  occ. eigenvalues --   -0.29561  -0.27531
 Alpha virt. eigenvalues --    0.01415   0.01704   0.01989   0.02137   0.05859
 Alpha virt. eigenvalues --    0.06932   0.07922   0.08184   0.08815   0.09376
 Alpha virt. eigenvalues --    0.09597   0.10144   0.10500   0.10918   0.11391
 Alpha virt. eigenvalues --    0.11727   0.11890   0.12252   0.12671   0.13173
 Alpha virt. eigenvalues --    0.13619   0.13764   0.14126   0.14428   0.14814
 Alpha virt. eigenvalues --    0.15082   0.15298   0.15718   0.15913   0.16349
 Alpha virt. eigenvalues --    0.16571   0.17284   0.17609   0.17749   0.18034
 Alpha virt. eigenvalues --    0.18774   0.19004   0.19298   0.19346   0.19654
 Alpha virt. eigenvalues --    0.20279   0.20347   0.20945   0.21034   0.21446
 Alpha virt. eigenvalues --    0.21710   0.22133   0.22529   0.22947   0.23108
 Alpha virt. eigenvalues --    0.23296   0.23792   0.24150   0.24484   0.25251
 Alpha virt. eigenvalues --    0.25359   0.25879   0.26141   0.26428   0.26997
 Alpha virt. eigenvalues --    0.27170   0.27324   0.27687   0.27876   0.28550
 Alpha virt. eigenvalues --    0.28796   0.29213   0.29598   0.29753   0.30240
 Alpha virt. eigenvalues --    0.30927   0.31145   0.31584   0.32261   0.32315
 Alpha virt. eigenvalues --    0.32935   0.33175   0.33564   0.34066   0.34530
 Alpha virt. eigenvalues --    0.34881   0.35374   0.35570   0.35870   0.36242
 Alpha virt. eigenvalues --    0.36784   0.37134   0.37710   0.38037   0.38478
 Alpha virt. eigenvalues --    0.38682   0.39059   0.39473   0.39765   0.40342
 Alpha virt. eigenvalues --    0.40500   0.40582   0.41097   0.41287   0.41576
 Alpha virt. eigenvalues --    0.41647   0.42093   0.42482   0.42724   0.43004
 Alpha virt. eigenvalues --    0.43746   0.44118   0.44319   0.44509   0.44830
 Alpha virt. eigenvalues --    0.44944   0.45338   0.45514   0.45806   0.46239
 Alpha virt. eigenvalues --    0.46700   0.46739   0.47438   0.47527   0.47845
 Alpha virt. eigenvalues --    0.47947   0.48235   0.48401   0.48816   0.49222
 Alpha virt. eigenvalues --    0.49406   0.49792   0.49981   0.50139   0.50414
 Alpha virt. eigenvalues --    0.50500   0.50989   0.51318   0.51604   0.52028
 Alpha virt. eigenvalues --    0.52080   0.52669   0.53019   0.53124   0.53461
 Alpha virt. eigenvalues --    0.53588   0.53783   0.54329   0.54607   0.54900
 Alpha virt. eigenvalues --    0.55407   0.55654   0.55768   0.56717   0.57002
 Alpha virt. eigenvalues --    0.57257   0.57706   0.57910   0.58307   0.58508
 Alpha virt. eigenvalues --    0.59044   0.59645   0.59985   0.60436   0.60555
 Alpha virt. eigenvalues --    0.60940   0.61503   0.61783   0.62573   0.62867
 Alpha virt. eigenvalues --    0.63482   0.64580   0.64810   0.65535   0.66037
 Alpha virt. eigenvalues --    0.66339   0.66720   0.67878   0.68469   0.69148
 Alpha virt. eigenvalues --    0.69543   0.69767   0.69984   0.70339   0.70723
 Alpha virt. eigenvalues --    0.71842   0.72311   0.72669   0.72808   0.73834
 Alpha virt. eigenvalues --    0.74181   0.74687   0.74739   0.75148   0.76231
 Alpha virt. eigenvalues --    0.76529   0.77047   0.78415   0.78486   0.78991
 Alpha virt. eigenvalues --    0.79163   0.79514   0.80268   0.81102   0.81447
 Alpha virt. eigenvalues --    0.82178   0.82686   0.83556   0.84207   0.84367
 Alpha virt. eigenvalues --    0.84918   0.86037   0.86613   0.87197   0.87438
 Alpha virt. eigenvalues --    0.87979   0.88773   0.89444   0.89649   0.90283
 Alpha virt. eigenvalues --    0.91065   0.91290   0.91667   0.91954   0.92622
 Alpha virt. eigenvalues --    0.93158   0.93850   0.94171   0.94317   0.95531
 Alpha virt. eigenvalues --    0.95595   0.96251   0.96963   0.97831   0.98247
 Alpha virt. eigenvalues --    0.98594   0.98863   0.99853   1.00849   1.01167
 Alpha virt. eigenvalues --    1.01749   1.02133   1.03243   1.03710   1.04561
 Alpha virt. eigenvalues --    1.05290   1.05790   1.06183   1.06460   1.07038
 Alpha virt. eigenvalues --    1.07713   1.08096   1.08448   1.09116   1.09868
 Alpha virt. eigenvalues --    1.10357   1.10790   1.11055   1.11874   1.12177
 Alpha virt. eigenvalues --    1.12822   1.13752   1.14283   1.15200   1.15768
 Alpha virt. eigenvalues --    1.16217   1.16593   1.17495   1.17857   1.18595
 Alpha virt. eigenvalues --    1.19269   1.19681   1.20038   1.20560   1.21103
 Alpha virt. eigenvalues --    1.21529   1.21848   1.22628   1.23284   1.23848
 Alpha virt. eigenvalues --    1.23947   1.24736   1.25303   1.25536   1.26180
 Alpha virt. eigenvalues --    1.26727   1.27332   1.27755   1.27973   1.28513
 Alpha virt. eigenvalues --    1.28785   1.29665   1.29871   1.30733   1.30932
 Alpha virt. eigenvalues --    1.31933   1.32460   1.32912   1.33374   1.34372
 Alpha virt. eigenvalues --    1.34855   1.35510   1.35970   1.36395   1.37093
 Alpha virt. eigenvalues --    1.37773   1.38655   1.39153   1.40291   1.40675
 Alpha virt. eigenvalues --    1.41403   1.42294   1.42645   1.42921   1.44341
 Alpha virt. eigenvalues --    1.45100   1.45427   1.45609   1.45940   1.47833
 Alpha virt. eigenvalues --    1.48423   1.49058   1.49631   1.51082   1.51239
 Alpha virt. eigenvalues --    1.51711   1.52420   1.53887   1.54530   1.54975
 Alpha virt. eigenvalues --    1.55499   1.56219   1.57426   1.57634   1.58403
 Alpha virt. eigenvalues --    1.58946   1.59776   1.59807   1.60303   1.60509
 Alpha virt. eigenvalues --    1.61236   1.61904   1.62180   1.62410   1.62693
 Alpha virt. eigenvalues --    1.63412   1.63470   1.64570   1.64652   1.64920
 Alpha virt. eigenvalues --    1.65266   1.65938   1.66356   1.66602   1.66647
 Alpha virt. eigenvalues --    1.67180   1.67456   1.68247   1.68576   1.68949
 Alpha virt. eigenvalues --    1.69181   1.69526   1.70226   1.70539   1.71184
 Alpha virt. eigenvalues --    1.72015   1.72359   1.72692   1.73314   1.73717
 Alpha virt. eigenvalues --    1.73829   1.74449   1.74540   1.75042   1.75312
 Alpha virt. eigenvalues --    1.75460   1.75945   1.76116   1.77044   1.77480
 Alpha virt. eigenvalues --    1.77893   1.78713   1.78918   1.79604   1.79846
 Alpha virt. eigenvalues --    1.80646   1.81423   1.81937   1.82779   1.84110
 Alpha virt. eigenvalues --    1.84552   1.84849   1.86401   1.87363   1.87741
 Alpha virt. eigenvalues --    1.89084   1.89143   1.89607   1.90064   1.90742
 Alpha virt. eigenvalues --    1.91914   1.93070   1.93397   1.93610   1.94674
 Alpha virt. eigenvalues --    1.95322   1.96220   1.96632   1.97419   1.97836
 Alpha virt. eigenvalues --    1.99314   1.99795   2.00337   2.00846   2.01086
 Alpha virt. eigenvalues --    2.01888   2.02280   2.03050   2.03972   2.04422
 Alpha virt. eigenvalues --    2.04520   2.05156   2.06948   2.07310   2.07974
 Alpha virt. eigenvalues --    2.08801   2.09778   2.10082   2.10393   2.11493
 Alpha virt. eigenvalues --    2.11928   2.12447   2.13404   2.13730   2.14345
 Alpha virt. eigenvalues --    2.15168   2.15417   2.16296   2.16564   2.17413
 Alpha virt. eigenvalues --    2.18163   2.18479   2.19010   2.19680   2.20888
 Alpha virt. eigenvalues --    2.21234   2.22404   2.22945   2.23091   2.24449
 Alpha virt. eigenvalues --    2.24996   2.25367   2.26173   2.26873   2.27384
 Alpha virt. eigenvalues --    2.27469   2.28165   2.28881   2.30078   2.30430
 Alpha virt. eigenvalues --    2.30958   2.31927   2.32787   2.33363   2.33592
 Alpha virt. eigenvalues --    2.33842   2.34288   2.35069   2.35215   2.35719
 Alpha virt. eigenvalues --    2.37191   2.38053   2.38412   2.38880   2.38971
 Alpha virt. eigenvalues --    2.39715   2.40453   2.41028   2.41316   2.41389
 Alpha virt. eigenvalues --    2.43363   2.44192   2.44903   2.45087   2.45430
 Alpha virt. eigenvalues --    2.45905   2.46387   2.46875   2.48355   2.49281
 Alpha virt. eigenvalues --    2.49558   2.50296   2.50636   2.51316   2.51679
 Alpha virt. eigenvalues --    2.52413   2.52860   2.53336   2.53866   2.53970
 Alpha virt. eigenvalues --    2.54764   2.55061   2.55633   2.56111   2.56341
 Alpha virt. eigenvalues --    2.57251   2.57299   2.57698   2.58449   2.58926
 Alpha virt. eigenvalues --    2.59233   2.59564   2.60242   2.60782   2.60975
 Alpha virt. eigenvalues --    2.61318   2.61927   2.62594   2.62950   2.63019
 Alpha virt. eigenvalues --    2.63337   2.64062   2.64272   2.64704   2.64803
 Alpha virt. eigenvalues --    2.65216   2.65640   2.66583   2.66720   2.66826
 Alpha virt. eigenvalues --    2.67238   2.67798   2.67965   2.68322   2.69015
 Alpha virt. eigenvalues --    2.69450   2.69816   2.70141   2.70759   2.70877
 Alpha virt. eigenvalues --    2.71055   2.71460   2.72160   2.72420   2.73066
 Alpha virt. eigenvalues --    2.73736   2.74008   2.74181   2.74650   2.75643
 Alpha virt. eigenvalues --    2.75893   2.76444   2.76478   2.76674   2.77202
 Alpha virt. eigenvalues --    2.78125   2.78693   2.78911   2.79623   2.80027
 Alpha virt. eigenvalues --    2.80348   2.80839   2.81611   2.81821   2.82253
 Alpha virt. eigenvalues --    2.82947   2.83500   2.83846   2.84379   2.84833
 Alpha virt. eigenvalues --    2.85540   2.85989   2.86406   2.87250   2.87604
 Alpha virt. eigenvalues --    2.87697   2.88679   2.88870   2.89019   2.89568
 Alpha virt. eigenvalues --    2.90270   2.90417   2.90982   2.91719   2.93155
 Alpha virt. eigenvalues --    2.93727   2.94027   2.94834   2.95326   2.95935
 Alpha virt. eigenvalues --    2.97228   2.97853   2.99151   2.99884   3.00802
 Alpha virt. eigenvalues --    3.01683   3.03496   3.04069   3.04668   3.05563
 Alpha virt. eigenvalues --    3.06928   3.07618   3.08393   3.08955   3.09453
 Alpha virt. eigenvalues --    3.09816   3.10817   3.12216   3.12323   3.13206
 Alpha virt. eigenvalues --    3.13247   3.14052   3.14473   3.14640   3.15112
 Alpha virt. eigenvalues --    3.15607   3.16214   3.16313   3.16664   3.17056
 Alpha virt. eigenvalues --    3.17277   3.17702   3.17831   3.18690   3.18983
 Alpha virt. eigenvalues --    3.19522   3.20452   3.20886   3.21335   3.21688
 Alpha virt. eigenvalues --    3.22345   3.22869   3.23454   3.24045   3.24382
 Alpha virt. eigenvalues --    3.25314   3.25757   3.26324   3.26660   3.26961
[...]
 .00000140,0.00000399,0.00004102,0.00000457,-0.00002213,0.00000630,0.00
 004548,-0.00005812,0.00000409,0.00000898,0.00001264,-0.00001324,0.0000
 0540,-0.00002246,0.00004278,0.00044200,0.00001213,-0.00031387,0.000182
 80,-0.00023528,0.00026255,0.00038823,0.00081806,-0.00073271,-0.0055681
 5,0.01355905,-0.01340101,0.00887344,-0.01729571,0.01824659,0.07394519,
 -0.00028848,0.00017981,0.00007864,0.00031448,0.00029307,0.00003411,-0.
 00035494,-0.00017311,-0.00043905,-0.00163709,-0.00182707,0.00054459,-0
 .00210823,-0.00190992,0.00130178,-0.00088661,-0.00063873,0.00032433,0.
 00019042,0.00014305,-0.00006814,0.00000647,0.00001407,0.00000857,0.000
 00313,-0.00000449,-0.00000025,0.00000061,0.00000273,0.00000189,0.00000
 014,0.00000214,0.00000189,-0.00000074,-0.00000094,0.00000254,0.0000017
 0,0.00000213,-0.00000101,0.00000166,0.00000110,0.00000620,0.00000999,-
 0.00000951,-0.00000262,0.00004124,0.00005334,-0.00009762,0.00000735,0.
 00006192,-0.00004314,0.00002589,0.00007184,-0.00001712,0.00005583,0.00
 008073,-0.00004767,0.00010985,0.00006457,-0.00012288,0.00004830,-0.000
 04827,0.00004265,0.00000883,-0.00001146,-0.00000513,-0.00000010,-0.000
 00170,-0.00000174,-0.00000113,0.00000046,-0.00000012,0.00000027,-0.000
 00035,-0.00000084,-0.00000184,-0.00000060,0.00000048,-0.00000302,-0.00
 000155,-0.00000390,-0.00000015,0.00000478,0.00000401,-0.00000230,0.000
 00021,0.00000132,0.00000149,0.00000130,0.00000316,0.00003826,-0.000061
 80,-0.00005002,-0.00002263,0.00000729,0.00001813,-0.00000716,0.0000397
 7,-0.00000023,0.00031050,-0.00001225,0.00008075,-0.00116227,0.00136390
 ,0.00051593,-0.00001315,0.00000506,-0.00022367,-0.00005372,-0.00001493
 ,0.00005190,0.00057953,0.00092703,0.00134098,0.00581870,-0.01757084,0.
 01828390,0.00000834,-0.00001054,-0.00003678,-0.00010731,-0.00002612,0.
 00009994,0.00193065,-0.00427901,-0.00320658,0.05459909,-0.16013961,0.1
 2376803,0.00002235,0.00001431,-0.00007386,0.00001893,0.00002663,0.0000
 7492,-0.00005957,-0.00020932,-0.00084591,-0.00030609,-0.00019646,0.000
 13561,-0.00000790,-0.00000193,-0.00000100,0.00001093,0.00001252,-0.000
 01094,0.00000221,-0.00000200,0.00000075,-0.00005267,0.00008322,-0.0000
 1523,-0.00000188,-0.00000888,-0.00001239,0.00000904,0.00004681,-0.0000
 6031,0.00003525,0.00021190,-0.00036795,0.00016578,0.00005452,0.0000790
 1,0.00066099,-0.00104104,0.00124874,-0.00431123,0.01032281,-0.01126936
 ,0.00268393,-0.00585357,0.00551349,-0.05623516,0.17949113,0.00018481,-
 0.00033964,-0.00023703,-0.00023796,-0.00003992,0.00047517,0.00042338,-
 0.00018052,0.00004390,0.00060036,0.00030014,-0.00070469,0.00154730,0.0
 0223303,-0.00070678,0.00142458,0.00122385,-0.00081489,-0.00026870,0.00
 040048,-0.00013194,0.00000640,0.00001573,-0.00000572,0.00000643,-0.000
 01256,-0.00000237,-0.00000655,0.00001137,0.00000255,0.00000013,-0.0000
 0035,0.00000246,-0.00000052,-0.00000231,0.00000181,0.00000187,-0.00000
 478,-0.00000211,-0.00000362,0.00000227,-0.00000081,0.00000555,-0.00000
 883,0.00000072,-0.00001697,-0.00002500,-0.00000547,-0.00001148,-0.0000
 5325,0.00001042,-0.00004402,-0.00009866,-0.00000628,-0.00010545,-0.000
 08740,-0.00001258,-0.00005249,-0.00007462,-0.00001522,-0.00000847,-0.0
 0004618,0.00003334,0.00002000,-0.00002117,0.00000570,-0.00000421,-0.00
 000246,-0.00000370,-0.00000204,-0.00000019,0.00000246,0.00000008,-0.00
 000004,0.00000085,0.00000120,0.00000030,0.00000020,0.00000339,-0.00000
 213,0.00000207,0.00000043,0.00000879,0.00000298,-0.00000624,-0.0000050
 5,0.00000288,0.00000148,0.00000046,0.00000097,0.00003219,-0.00000995,-
 0.00002478,-0.00003146,-0.00002679,0.00001822,-0.00000109,0.00004498,-
 0.00000209,-0.00039075,-0.00019775,0.00032581,-0.00074548,0.00042982,0
 .00078121,-0.00003926,-0.00010743,-0.00007152,-0.00001669,-0.00000888,
 0.00000905,0.00057543,-0.00083607,0.00108088,0.00366463,-0.01000311,0.
 00973712,-0.00001978,0.00003982,-0.00000143,-0.00006503,0.00002276,0.0
 0003155,0.00114410,-0.00216413,-0.00071086,-0.06007140,0.12533449,-0.1
 8342600,0.00000336,0.00000259,-0.00000602,-0.00000119,0.00000086,0.000
 03502,0.00012895,-0.00012072,-0.00011522,-0.00006120,0.00038275,0.0000
 2366,-0.00000044,-0.00000048,-0.00000447,0.00000522,0.00000407,-0.0000
 0059,-0.00001429,-0.00000426,0.00001208,-0.00001690,0.00000115,0.00000
 078,0.00001893,0.00000385,-0.00000874,-0.00001797,0.00001483,-0.000003
 44,-0.00020762,-0.00026863,0.00008486,0.00018627,-0.00013315,-0.000004
 37,0.00017199,-0.00065758,0.00078939,-0.00363725,0.01280267,-0.0130573
 5,-0.00498558,0.00862051,-0.01078249,0.06083456,-0.13644395,0.19720373
 ,0.00001980,0.00001557,0.00000734,0.00001964,-0.00000535,-0.00000037,0
 .00000860,0.00000434,-0.00000401,0.00000967,0.00000238,-0.00000082,-0.
 00004234,0.00000778,-0.00000513,0.00002110,0.00000822,-0.00001678,0.00
 009369,0.00009360,-0.00026999,-0.00000036,-0.00001168,0.00000908,0.000
 00345,0.00000250,0.00000579,0.00000322,0.00000041,-0.00000034,0.000001
 40,-0.00000450,-0.00000085,-0.00000334,0.00000231,0.00000403,-0.000000
 46,0.00001009,0.00000573,0.00001651,-0.00000013,0.00000250,0.00000096,
 0.00000112,-0.00000412,-0.00000160,-0.00001200,0.00000992,-0.00000450,
 -0.00000249,0.00000254,-0.00000120,-0.00000308,0.00000347,-0.00000807,
 -0.00000473,0.00000418,-0.00002700,-0.00002331,0.00001535,-0.00003080,
 0.00004193,0.00004571,-0.00000074,0.00000294,-0.00000643,-0.00000193,-
 0.00000095,0.00000025,-0.00000033,0.00000215,-0.00000114,0.00000290,0.
 00000032,-0.00000225,-0.00000290,-0.00000142,-0.00000037,-0.00000825,0
 .00000145,-0.00000701,-0.00000108,-0.00000146,-0.00000193,0.00000111,0
 .00000395,-0.00000026,0.00000193,-0.00000072,0.00000100,-0.00002749,-0
 .00004461,0.00002736,-0.00001884,-0.00000679,-0.00000935,-0.00000354,-
 0.00000309,0.00000201,0.00034824,-0.00150789,-0.00050448,-0.00122156,-
 0.00167784,-0.00095004,0.00869995,-0.00848742,-0.00648509,-0.18455906,
 0.10917312,0.08452583,-0.00115069,-0.00081481,0.00018565,-0.00037720,-
 0.00038494,-0.00031899,-0.00003969,-0.00155928,-0.00063763,0.00039034,
 -0.00029470,-0.00008933,0.00010523,-0.00010970,0.00005516,0.00010923,0
 .00004996,0.00004442,-0.01287645,0.00909403,0.00916836,-0.01157804,0.0
 0912824,0.00611208,0.00009496,-0.00012191,-0.00004799,-0.00010180,0.00
 046552,0.00024968,0.00036058,-0.00021636,-0.00016159,-0.00004616,0.000
 01773,0.00017836,-0.00013153,-0.00116797,-0.00029838,-0.00007639,0.000
 18733,0.00013451,0.00021882,-0.00004637,0.00016796,-0.00004653,-0.0001
 1075,-0.00010178,-0.00002216,0.00007735,0.00000316,0.00001424,0.000019
 66,0.00009045,-0.00008611,0.00016761,-0.00002884,-0.00000533,0.0000560
 1,0.00006182,0.00003303,-0.00001081,-0.00003774,-0.00002054,-0.0000204
 8,-0.00000258,0.20209878,-0.00000608,0.00000217,-0.00000195,0.00001116
 ,-0.00000708,-0.00000022,0.00000893,0.00000501,0.00000114,0.00000617,0
 .00000359,0.00002123,-0.00009441,-0.00004492,0.00003748,0.00000886,-0.
 00002766,0.00000113,0.00024711,0.00062303,-0.00071025,0.00006142,-0.00
 002386,-0.00001873,0.00005858,-0.00000677,-0.00006469,0.00000087,-0.00
 001492,0.00004204,0.00000675,-0.00000820,0.00000861,-0.00000602,0.0000
 1807,0.00003217,0.00000042,0.00003423,0.00001614,0.00001417,0.00002723
 ,0.00001071,-0.00003800,0.00001103,0.00001380,0.00000798,0.00000115,0.
 00000260,0.00000318,-0.00000174,0.00000083,0.00000452,-0.00000336,-0.0
 0000098,-0.00000325,0.00000424,-0.00000095,0.00002198,0.00001280,-0.00
 002519,-0.00002936,-0.00006518,0.00014934,0.00001466,-0.00001083,0.000
 01079,0.00000150,0.00001532,-0.00001152,-0.00000547,-0.00000413,-0.000
 00094,-0.00001490,-0.00000418,-0.00000089,-0.00002019,0.00000170,-0.00
 000734,-0.00000831,-0.00000889,-0.00001034,0.00000229,0.00000699,0.000
 01607,0.00000248,-0.00000502,-0.00000394,-0.00001307,-0.00000287,-0.00
 001425,-0.00003007,-0.00016298,0.00015751,-0.00006054,-0.00005130,-0.0
 0004549,-0.00000240,0.00003040,0.00002718,0.00023644,-0.00230168,-0.00
 136310,-0.00409792,-0.00162585,-0.00141610,0.01852790,-0.01613194,-0.0
 0989626,0.10560183,-0.12616014,-0.06243773,-0.00026317,-0.00012623,-0.
 00012098,-0.00054669,-0.00033625,0.00040020,0.00189743,-0.00018611,-0.
 00070040,0.00059235,0.00071227,0.00068638,0.00010682,-0.00016974,0.000
 09304,0.00006556,0.00009756,-0.00004995,0.00702453,-0.00660943,-0.0050
 1621,-0.01377847,0.01162995,0.00786425,-0.00011508,0.00014993,-0.00006
 245,-0.00003502,0.00021374,-0.00000418,-0.00015815,0.00048793,0.000198
 39,-0.00005302,-0.00005128,0.00000543,-0.00133403,-0.00034657,0.000443
 77,-0.00014715,-0.00003340,-0.00002074,-0.00008856,-0.00007619,0.00033
 026,-0.00044234,0.00032708,-0.00022951,-0.00001371,0.00011723,-0.00001
 564,-0.00002856,0.00002937,0.00003542,-0.00008604,0.00020515,0.0000105
 6,-0.00002863,0.00000927,0.00003105,0.00005729,-0.00001637,-0.00003105
 ,-0.00001413,0.00001560,0.00000936,-0.11302516,0.13953587,-0.00000137,
 0.00000197,-0.00000219,0.00000504,-0.00000358,0.00000128,-0.00000040,0
 .00000407,0.00000259,0.00000714,-0.00000089,0.00002105,-0.00006792,-0.
 00002724,0.00000850,0.00001815,-0.00001637,-0.00001294,0.00010814,0.00
 024280,-0.00046605,0.00003455,-0.00002775,0.00000556,0.00003076,-0.000
 00237,-0.00003908,-0.00001015,-0.00000519,0.00001629,-0.00000310,0.000
 00429,-0.00000859,-0.00001077,0.00000774,0.00001431,0.00000889,0.00000
 959,0.00000984,0.00000746,0.00000088,0.00002781,-0.00002092,0.00001229
 ,0.00000148,0.00000557,-0.00000289,0.00000449,0.00000175,-0.00000047,0
 .00000093,0.00000359,-0.00000134,-0.00000070,-0.00000057,0.00000470,-0
 .00000024,-0.00000858,-0.00002591,-0.00000575,-0.00000529,-0.00003941,
 0.00006911,0.00000966,-0.00000597,-0.00000782,0.00000242,0.00001263,-0
 .00000699,0.00000045,0.00000414,-0.00000069,0.00000119,-0.00000036,-0.
 00000067,-0.00002070,0.00000099,0.00000131,-0.00001301,-0.00000891,-0.
 00002488,0.00000218,0.00000302,0.00000983,0.00000326,0.00000044,-0.000
 00032,-0.00001078,-0.00000244,-0.00000878,-0.00000250,-0.00011776,0.00
 010138,-0.00004159,-0.00003062,-0.00003452,0.00000053,0.00001818,0.000
 01117,0.00010289,-0.00160481,-0.00011568,-0.00257130,-0.00038304,-0.00
 074273,0.01303843,-0.01013212,-0.00859559,0.08308803,-0.06328643,-0.09
 685609,-0.00012290,0.00015679,0.00013124,-0.00039916,0.00025105,0.0001
 7056,0.00115558,0.00141071,0.00028598,0.00057569,0.00008428,0.00033245
 ,0.00000010,0.00026962,-0.00006468,0.00003051,0.00005219,0.00000364,-0
 .01639265,0.01272490,0.01156515,0.01340567,-0.01139783,-0.00875425,0.0
 0012156,-0.00028043,0.00005327,0.00005081,-0.00007708,0.00020653,-0.00
 016637,0.00039062,-0.00013265,-0.00016265,0.00012173,-0.00003298,-0.00
 002341,0.00061455,0.00080277,0.00019101,0.00007379,-0.00020391,0.00000
 331,0.00020337,0.00023126,-0.00064791,-0.00013969,-0.00021004,0.000004
 10,-0.00006794,-0.00009977,0.00004348,-0.00010889,-0.00006247,0.000104
 36,-0.00023646,0.00002290,-0.00001177,-0.00000115,-0.00000029,0.000025
 06,-0.00000974,-0.00001716,0.00000969,-0.00001644,0.00000108,-0.091400
 62,0.07145867,0.10253915,0.00000490,0.00002734,0.00001617,0.00000567,-
 0.00000323,-0.00001627,-0.00001206,0.00000384,0.00000726,-0.00001439,0
 .00000510,-0.00000165,0.00001936,0.00002048,-0.00000365,0.00000228,-0.
 00000422,-0.00002310,0.00001861,0.00004344,-0.00002694,0.00000776,-0.0
 0001272,0.00000223,0.00001898,-0.00000207,-0.00002029,0.00000449,-0.00
 000445,0.00001198,0.00000305,-0.00000162,0.00000456,-0.00000401,0.0000
 0759,0.00000994,-0.00000033,0.00001490,0.00000769,0.00001076,0.0000085
 9,0.00001215,-0.00000731,0.00000193,-0.00000151,-0.00000129,-0.0000050
 7,0.00001012,0.00000040,-0.00000416,0.00000452,-0.00000130,0.00000285,
 -0.00000039,0.00001260,0.00001624,0.00000462,0.00000612,-0.00000369,0.
 00000557,-0.00000674,-0.00003753,0.00001467,0.00000105,-0.00000552,-0.
 00000793,-0.00000158,0.00000284,-0.00000389,-0.00000236,-0.00000077,-0
 .00000166,-0.00000343,-0.00000172,-0.00000216,-0.00000795,-0.00000111,
 -0.00000134,-0.00000921,-0.00000388,-0.00001107,-0.00000071,0.00000354
 ,0.00000773,0.00000113,0.00000092,-0.00000053,-0.00000211,-0.00000141,
 -0.00000246,0.00000648,0.00000264,-0.00001077,0.00000077,-0.00000054,-
 0.00000091,0.00000667,0.00001143,0.00001250,-0.00054105,-0.00005518,0.
 00011142,0.00064906,0.00027546,-0.00007541,-0.00008073,-0.00073380,-0.
 00068131,-0.00388673,0.00093665,0.00159633,-0.05441293,0.04817141,0.01
 379651,0.00606783,-0.02144215,-0.00527405,0.00007820,0.00024867,0.0002
 4122,-0.00007175,0.00022503,0.00011474,0.00104817,-0.00063678,0.001331
 02,-0.00271044,-0.00084923,-0.00203037,-0.00087273,0.00024172,0.000511
 50,-0.00388773,0.00163787,0.00049853,-0.00129128,-0.00005322,0.0003889
 1,-0.00487387,0.02729173,0.00722660,0.00007526,0.00005722,-0.00007326,
 -0.00000513,-0.00001611,-0.00001787,-0.00006029,0.00000197,0.00003050,
 -0.00001646,-0.00000304,-0.00004662,0.00009185,-0.00001559,0.00007324,
 -0.00002863,0.00000791,-0.00002663,-0.00008131,0.00017715,0.00007569,-
 0.00005862,-0.00004315,0.00026031,-0.00000749,0.00056247,-0.00011160,0
 .00080175,-0.00091025,-0.00079793,0.00032302,0.00007610,-0.00043388,-0
 .00023027,-0.00007629,0.00010165,-0.00015339,-0.00000530,-0.00008461,0
 .06407938,-0.00005023,-0.00002752,-0.00002680,-0.00004456,0.00002569,0
 .00002684,-0.00004023,0.00000850,0.00000353,-0.00000043,-0.00001334,0.
 00001401,0.00003243,-0.00000816,0.00006518,-0.00000272,-0.00006124,-0.
 00004388,0.00012375,0.00011480,-0.00006372,0.00002692,-0.00001968,0.00
 000094,0.00001655,-0.00000616,-0.00003729,-0.00000655,-0.00000885,0.00
 001459,0.00000263,0.00000040,-0.00000406,-0.00000448,0.00000842,0.0000
 0902,0.00000062,0.00000928,0.00000636,-0.00000042,0.00000487,0.0000161
 5,-0.00001786,0.00000878,0.00000277,0.00001050,0.00001716,-0.00001597,
 0.00000869,0.00000212,-0.00000188,0.00000371,0.00000476,-0.00000756,0.
 00001622,0.00001798,-0.00000384,0.00003328,0.00001403,-0.00002309,-0.0
 0001047,-0.00003140,0.00002334,0.00000354,-0.00000469,-0.00000133,0.00
 000458,0.00001040,-0.00000564,-0.00000065,-0.00000171,0.00000062,-0.00
 000534,-0.00000040,0.00000114,-0.00000818,0.00000237,-0.00000077,-0.00
 000268,-0.00000435,-0.00000766,0.00000298,0.00000386,0.00001081,0.0000
 0183,-0.00000263,-0.00000054,-0.00001053,-0.00000084,-0.00000741,0.000
 00234,-0.00000025,-0.00000613,-0.00000432,-0.00000488,-0.00000297,0.00
 000236,0.00001412,0.00002036,-0.00055673,0.00005725,0.00006055,-0.0001
 5798,0.00010142,-0.00031406,-0.00012421,-0.00069887,-0.00019015,0.0028
 1550,-0.00139306,-0.00108429,0.04355301,-0.29611327,-0.07828071,0.0035
 7364,-0.00857738,-0.00105316,-0.00000243,0.00015495,0.00005868,-0.0000
 3303,0.00018201,0.00010316,0.00029135,0.00074868,0.00089729,-0.0025423
 1,-0.00021007,-0.00116931,-0.00001114,-0.00048585,0.00082197,0.0030540
 4,0.00042304,-0.00112014,0.00371955,-0.01611047,-0.00669918,0.00035296
 ,0.00097775,0.00037434,0.00004112,0.00004864,-0.00000585,0.00000389,-0
 .00001923,-0.00002349,-0.00009799,0.00001274,0.00005508,0.00000388,-0.
 00000012,-0.00004485,0.00007229,-0.00001272,0.00006719,-0.00006420,0.0
 0003120,-0.00002593,-0.00011101,-0.00005449,-0.00011454,-0.00009007,0.
 00014045,0.00013570,-0.00016701,0.00044320,-0.00046109,0.00042545,-0.0
 0027927,-0.00050178,0.00015396,0.00011595,0.00004303,-0.00007970,0.000
 45625,0.00007703,0.00104512,0.00029716,-0.00007848,-0.05515123,0.31969
 267,0.00003414,0.00004517,0.00001793,0.00004206,-0.00003010,-0.0000516
 4,-0.00001486,0.00000096,0.00005053,-0.00002581,0.00000466,0.00004452,
 -0.00001356,-0.00001908,-0.00008710,0.00000909,0.00000666,0.00001713,0
 .00001005,0.00015906,-0.00010153,0.00001011,-0.00000395,0.00001256,0.0
 0000083,-0.00000113,-0.00001109,-0.00000444,0.00000102,0.00000167,-0.0
 0000074,0.00000177,-0.00000366,-0.00000179,0.00000004,0.00000082,0.000
 00035,-0.00000130,-0.00000110,-0.00000462,-0.00000368,0.00000684,-0.00
 000143,0.00000097,0.00000085,-0.00000285,-0.00003139,0.00004188,0.0000
 0041,-0.00000329,0.00000409,0.00000388,0.00000775,0.00000198,0.0000159
 6,0.00003426,0.00001436,-0.00005370,-0.00001455,0.00002930,-0.00000672
 ,-0.00001677,0.00002161,0.00000498,-0.00000388,0.00000365,0.00000162,0
 .00000281,-0.00000248,0.00000006,0.00000035,0.00000132,0.00000036,0.00
 000076,0.00000094,-0.00000068,0.00000125,0.00000147,0.00000178,-0.0000
 0084,-0.00000036,0.00000226,0.00000072,0.00000290,-0.00000061,-0.00000
 129,-0.00000016,-0.00000450,0.00000041,-0.00000111,0.00002267,-0.00002
 618,-0.00001099,-0.00001308,-0.00001052,-0.00000004,0.00001114,0.00001
 873,0.00001301,-0.00025467,-0.00012465,0.00009542,0.00034229,0.0003364
 6,0.00000036,-0.00019956,-0.00001960,0.00008465,0.00168726,-0.00113162
 ,-0.00001879,0.01273986,-0.07821347,-0.07204775,0.00646494,-0.01727326
 ,-0.00680041,-0.00004421,0.00010385,-0.00000852,-0.00003228,-0.0001771
 6,-0.00002767,0.00108547,-0.00103365,0.00113222,-0.00390173,-0.0016318
 3,-0.00301618,0.00130600,0.00018271,-0.00071606,0.00034549,0.00029022,
 0.00031035,-0.00543154,0.02442392,0.00942322,0.00233668,-0.01399216,-0
 .00467272,-0.00000232,0.00000136,-0.00000124,0.00000206,0.00002118,-0.
 00000707,-0.00002272,0.00000178,0.00003662,-0.00001588,0.00005054,-0.0
 0001654,-0.00002371,0.00001376,-0.00003386,0.00000642,0.00002322,-0.00
 000837,0.00010975,-0.00004190,-0.00017382,0.00010020,0.00017831,0.0002
 6335,-0.00047458,0.00057260,-0.00010460,0.00042151,-0.00147142,-0.0003
 8900,-0.00026612,0.00018946,0.00025904,0.00012633,-0.00008238,0.000146
 04,0.00027255,0.00016642,-0.00014440,-0.01669986,0.08851790,0.07641764
 \\-0.00000047,-0.00000104,0.00000082,-0.00000181,-0.00000193,0.0000002
 2,0.00000148,-0.00000129,0.00000531,0.00000141,0.00000424,-0.00000070,
 0.00000157,0.00000767,-0.00000292,0.00000393,0.00000018,0.00000112,-0.
 00000245,-0.00001189,0.00000111,-0.00000626,-0.00000410,-0.00000226,-0
 .00000447,0.00001496,-0.00000980,-0.00000609,-0.00000289,0.00001137,0.
 00000655,-0.00000603,-0.00000679,-0.00000288,0.00000764,-0.00000832,-0
 .00000450,-0.00000305,0.00000771,0.00000614,-0.00000812,-0.00000363,0.
 00000414,0.00000364,0.00000139,-0.00000161,-0.00000059,0.00000129,-0.0
 0000121,0.00000045,0.00000179,-0.00000082,-0.00000002,0.00000122,-0.00
 000073,0.00000036,0.00000005,0.00000098,-0.00000241,-0.00000029,-0.000
 00260,0.00000364,-0.00000170,-0.00000024,0.00000085,-0.00000147,-0.000
 00137,0.00000222,-0.00000147,-0.00000182,0.00000149,-0.00000158,-0.000
 00035,0.00000003,-0.00000177,0.00000020,-0.00000021,-0.00000250,0.0000
 0258,0.00000206,-0.00000170,0.00000141,0.00000061,-0.00000053,0.000000
 75,-0.00000024,-0.00000054,-0.00000071,-0.00000054,-0.00000237,0.00000
 399,-0.00000098,0.00000599,-0.00000105,-0.00000028,-0.00000341,0.00000
 278,-0.00000061,-0.00000084,0.00000107,0.00001026,0.00000363,0.0000039
 5,-0.00000522,0.00000490,-0.00000606,0.00000709,0.00000283,0.00000701,
 0.00000512,0.00000243,0.00000268,0.00000212,0.00000479,0.00000076,0.00
 000311,-0.00000779,0.00000091,-0.00000608,0.00000640,0.00000486,-0.000
 00940,-0.00000084,-0.00000005,-0.00000159,0.00000871,-0.00000462,-0.00
 000141,0.00000138,-0.00000407,-0.00000062,0.00000136,0.00000323,0.0000
 0110,0.00000343,-0.00000263,-0.00000053,0.00000154,0.00000101,0.000000
 65,-0.00000004,0.00000079,-0.00000326,-0.00000054,-0.00000386,0.000003
 47,-0.00000131,-0.00000194,-0.00000141,-0.00000134,0.00000327,0.000003
 34,-0.00000252,-0.00000287,-0.00000537,-0.00000463,-0.00000076,-0.0000
 0024,-0.00000266,0.00000181,-0.00000104,-0.00000064,-0.00000111,0.0000
 0161,-0.00000089,0.00000141,-0.00000277,-0.00000476,-0.00000259,-0.000
 00254,0.00000088,0.00000039,-0.00000038,0.00000152,-0.00000012,-0.0000
 0019,0.00000043,-0.00000006,0.00000080,-0.00000246,0.00000112,-0.00000
 048,0.00000137\\\@
 The archive entry for this job was punched.


 IF YOU DON'T HAVE THE LAW - ARGUE THE FACTS.
 IF YOU DON'T HAVE THE FACTS - ARGUE THE LAW.
 IF YOU DON'T HAVE EITHER - POUND THE TABLE.
 Job cpu time:       8 days  0 hours 33 minutes 18.5 seconds.
 Elapsed time:       0 days  9 hours 37 minutes 47.1 seconds.
 File lengths (MBytes):  RWF=   4272 Int=      0 D2E=      0 Chk=     84 Scr=      1
 Normal termination of Gaussian 16 at Thu Jan  9 01:22:58 2025.
