 Entering Gaussian System, Link 0=g16
 Input=gjfs/data_set_12-St_dormant-28.gjf
 Output=gjfs/data_set_12-St_dormant-28.log
 Initial command:
 /usr/local/intel/g16/l1.exe "/scr/Gau-1142168.inp" -scrdir="/scr/"
 Entering Link 1 = /usr/local/intel/g16/l1.exe PID=   1142170.
  
 Copyright (c) 1988-2019, Gaussian, Inc.  All Rights Reserved.
  
 This is part of the Gaussian(R) 16 program.  It is based on
 the Gaussian(R) 09 system (copyright 2009, Gaussian, Inc.),
 the Gaussian(R) 03 system (copyright 2003, Gaussian, Inc.),
 the Gaussian(R) 98 system (copyright 1998, Gaussian, Inc.),
 the Gaussian(R) 94 system (copyright 1995, Gaussian, Inc.),
 the Gaussian 92(TM) system (copyright 1992, Gaussian, Inc.),
 the Gaussian 90(TM) system (copyright 1990, Gaussian, Inc.),
 the Gaussian 88(TM) system (copyright 1988, Gaussian, Inc.),
 the Gaussian 86(TM) system (copyright 1986, Carnegie Mellon
 University), and the Gaussian 82(TM) system (copyright 1983,
 Carnegie Mellon University). Gaussian is a federally registered
 trademark of Gaussian, Inc.
  
 This software contains proprietary and confidential information,
 including trade secrets, belonging to Gaussian, Inc.
  
 This software is provided under written license and may be
 used, copied, transmitted, or stored only in accord with that
 written license.
  
 The following legend is applicable only to US Government
 contracts under FAR:
  
                    RESTRICTED RIGHTS LEGEND
  
 Use, reproduction and disclosure by the US Government is
 subject to restrictions as set forth in subparagraphs (a)
 and (c) of the Commercial Computer Software - Restricted
 Rights clause in FAR 52.227-19.
  
 Gaussian, Inc.
 340 Quinnipiac St., Bldg. 40, Wallingford CT 06492
  
  
 ---------------------------------------------------------------
 Warning -- This program may not be used in any manner that
 competes with the business of Gaussian, Inc. or will provide
 assistance to any competitor of Gaussian, Inc.  The licensee
 of this program is prohibited from giving any competitor of
 Gaussian, Inc. access to this program.  By using this program,
 the user acknowledges that Gaussian, Inc. is engaged in the
 business of creating and licensing software in the field of
 computational chemistry and represents and warrants to the
 licensee that it is not a competitor of Gaussian, Inc. and that
 it will not use this program in any manner prohibited above.
 ---------------------------------------------------------------
  

 Cite this work as:
 Gaussian 16, Revision C.01,
 M. J. Frisch, G. W. Trucks, H. B. Schlegel, G. E. Scuseria, 
 M. A. Robb, J. R. Cheeseman, G. Scalmani, V. Barone, 
 G. A. Petersson, H. Nakatsuji, X. Li, M. Caricato, A. V. Marenich, 
 J. Bloino, B. G. Janesko, R. Gomperts, B. Mennucci, H. P. Hratchian, 
 J. V. Ortiz, A. F. Izmaylov, J. L. Sonnenberg, D. Williams-Young, 
 F. Ding, F. Lipparini, F. Egidi, J. Goings, B. Peng, A. Petrone, 
 T. Henderson, D. Ranasinghe, V. G. Zakrzewski, J. Gao, N. Rega, 
 G. Zheng, W. Liang, M. Hada, M. Ehara, K. Toyota, R. Fukuda, 
 J. Hasegawa, M. Ishida, T. Nakajima, Y. Honda, O. Kitao, H. Nakai, 
 T. Vreven, K. Throssell, J. A. Montgomery, Jr., J. E. Peralta, 
 F. Ogliaro, M. J. Bearpark, J. J. Heyd, E. N. Brothers, K. N. Kudin, 
 V. N. Staroverov, T. A. Keith, R. Kobayashi, J. Normand, 
 K. Raghavachari, A. P. Rendell, J. C. Burant, S. S. Iyengar, 
 J. Tomasi, M. Cossi, J. M. Millam, M. Klene, C. Adamo, R. Cammi, 
 J. W. Ochterski, R. L. Martin, K. Morokuma, O. Farkas, 
 J. B. Foresman, and D. J. Fox, Gaussian, Inc., Wallingford CT, 2019.
 
 ******************************************
 Gaussian 16:  ES64L-G16RevC.01  3-Jul-2019
                 8-Jan-2025 
 ******************************************
 %nprocshared=20
 Will use up to   20 processors via shared memory.
 %mem=30GB
 %chk=outputs/data_set_12-St_dormant-28.chk
 ----------------------------------
 #p M062X/DEF2TZVP opt freq pop=NBO
 ----------------------------------
 1/18=20,19=15,26=3,38=1/1,3;
 2/9=110,12=2,17=6,18=5,40=1/2;
 3/5=44,7=101,11=2,25=1,30=1,71=1,74=-55/1,2,3;
 4//1;
 5/5=2,38=5/2;
 6/7=2,8=2,9=2,10=2,28=1,40=1/1,7;
 7//1,2,3,16;
 1/18=20,19=15,26=3/3(2);
 2/9=110/2;
 99//99;
 2/9=110/2;
 3/5=44,7=101,11=2,25=1,30=1,71=1,74=-55/1,2,3;
 4/5=5,16=3,69=1/1;
 5/5=2,38=5/2;
 7//1,2,3,16;
 1/18=20,19=15,26=3/3(-5);
 2/9=110/2;
 6/7=2,8=2,9=2,10=2,19=2,28=1,40=1/1,7;
 99/9=1/99;
 Leave Link    1 at Wed Jan  8 10:41:05 2025, MaxMem=  4026531840 cpu:               3.5 elap:               2.6
 (Enter /usr/local/intel/g16/l101.exe)
 -------------------------
 data_set_12-St_dormant-28
 -------------------------
 Symbolic Z-matrix:
 Charge =  0 Multiplicity = 1
 C                    -1.92006   3.16541  -2.13688 
 C                    -2.27175   4.25629  -1.3276 
 C                    -1.70289   4.38222  -0.05077 
 C                    -0.79702   3.42014   0.41459 
 C                    -0.44549   2.31782  -0.38332 
 C                    -1.01106   2.20871  -1.665 
 C                     0.49923   1.23023   0.0941 
 C                     2.58828   0.6366    1.50951 
 C                     3.27515  -0.10786   0.37228 
 C                     3.69784   0.54511  -0.8005 
 C                     4.35093  -0.15988  -1.82175 
 C                     4.60287  -1.53351  -1.68323 
 C                     4.19959  -2.19286  -0.5121 
 C                     3.54138  -1.48304   0.50157 
 C                     3.65107   1.26836   2.43848 
 H                    -2.35414   3.0593   -3.12572 
 H                    -2.9768    4.9988   -1.68713 
 H                    -1.96776   5.22468   0.57999 
 H                    -0.3789    3.52926   1.40997 
 H                    -0.75266   1.35721  -2.28581 
 H                     0.96601   0.78031  -0.78601 
 H                     2.01991  -0.09935   2.08951 
 H                     3.51237   1.60799  -0.92619 
 H                     4.6617    0.36005  -2.7224 
 H                     5.10638  -2.07981  -2.47402 
 H                     4.39081  -3.25443  -0.39206 
 H                     3.22123  -2.00259   1.40091 
 H                     4.24585   2.01167   1.89372 
 H                     4.33643   0.50579   2.82281 
 H                     3.17518   1.76672   3.29136 
 C                     1.58897   1.72165   1.05288 
 H                     2.11934   2.55542   0.57459 
 H                     1.11724   2.12507   1.95677 
 O                    -0.17301   0.15558   0.85223 
 N                    -1.22075  -0.54915   0.11066 
 C                    -0.67546  -1.87408  -0.36156 
 C                    -1.84667  -2.63877  -1.02368 
 C                    -3.08971  -2.74955  -0.14041 
 C                    -3.54153  -1.35633   0.27142 
 C                    -2.4418   -0.54974   0.99639 
 C                     0.36811  -1.61039  -1.46701 
 C                     0.00621  -2.71959   0.74511 
 C                    -2.18634  -1.09749   2.4253 
 C                    -2.9409    0.89998   1.13084 
 H                    -1.4807   -3.63666  -1.3032 
 H                    -2.13887  -2.11867  -1.94453 
 H                    -2.87529  -3.36469   0.74536 
 O                    -4.20379  -3.34551  -0.86917 
 H                    -4.41617  -1.42862   0.92633 
 H                    -3.84667  -0.82065  -0.63517 
 H                     1.30998  -1.24003  -1.05679 
 H                    -0.02058  -0.89275  -2.19628 
 H                     0.58967  -2.54828  -1.98973 
 H                    -0.70687  -3.26553   1.36802 
 H                     0.60179  -2.06435   1.38626 
 H                     0.67813  -3.45185   0.28327 
 H                    -3.02367  -0.81406   3.07266 
 H                    -1.27099  -0.65825   2.83088 
 H                    -2.09649  -2.18578   2.46095 
 H                    -3.03486   1.37025   0.1483 
 H                    -2.25418   1.49591   1.73637 
 H                    -3.92286   0.90214   1.61849 
 H                    -3.96755  -4.23737  -1.18238 
 
 ITRead=  0  0  0  0  0  0  0  0  0  0  0  0  0  0  0  0  0  0  0  0
 ITRead=  0  0  0  0  0  0  0  0  0  0  0  0  0  0  0  0  0  0  0  0
 ITRead=  0  0  0  0  0  0  0  0  0  0  0  0  0  0  0  0  0  0  0  0
 ITRead=  0  0  0
 MicOpt= -1 -1 -1 -1 -1 -1 -1 -1 -1 -1 -1 -1 -1 -1 -1 -1 -1 -1 -1 -1
 MicOpt= -1 -1 -1 -1 -1 -1 -1 -1 -1 -1 -1 -1 -1 -1 -1 -1 -1 -1 -1 -1
 MicOpt= -1 -1 -1 -1 -1 -1 -1 -1 -1 -1 -1 -1 -1 -1 -1 -1 -1 -1 -1 -1
 MicOpt= -1 -1 -1
 NAtoms=     63 NQM=       63 NQMF=       0 NMMI=      0 NMMIF=      0
                NMic=       0 NMicF=      0.
                    Isotopes and Nuclear Properties:
 (Nuclear quadrupole moments (NQMom) in fm**2, nuclear magnetic moments (NMagM)
  in nuclear magnetons)

  Atom         1           2           3           4           5           6           7           8           9          10
 IAtWgt=          12          12          12          12          12          12          12          12          12          12
 AtmWgt=  12.0000000  12.0000000  12.0000000  12.0000000  12.0000000  12.0000000  12.0000000  12.0000000  12.0000000  12.0000000
 NucSpn=           0           0           0           0           0           0           0           0           0           0
 AtZEff=  -0.0000000  -0.0000000  -0.0000000  -0.0000000  -0.0000000  -0.0000000  -0.0000000  -0.0000000  -0.0000000  -0.0000000
 NQMom=    0.0000000   0.0000000   0.0000000   0.0000000   0.0000000   0.0000000   0.0000000   0.0000000   0.0000000   0.0000000
 NMagM=    0.0000000   0.0000000   0.0000000   0.0000000   0.0000000   0.0000000   0.0000000   0.0000000   0.0000000   0.0000000
 AtZNuc=   6.0000000   6.0000000   6.0000000   6.0000000   6.0000000   6.0000000   6.0000000   6.0000000   6.0000000   6.0000000

  Atom        11          12          13          14          15          16          17          18          19          20
 IAtWgt=          12          12          12          12          12           1           1           1           1           1
 AtmWgt=  12.0000000  12.0000000  12.0000000  12.0000000  12.0000000   1.0078250   1.0078250   1.0078250   1.0078250   1.0078250
 NucSpn=           0           0           0           0           0           1           1           1           1           1
 AtZEff=  -0.0000000  -0.0000000  -0.0000000  -0.0000000  -0.0000000  -0.0000000  -0.0000000  -0.0000000  -0.0000000  -0.0000000
 NQMom=    0.0000000   0.0000000   0.0000000   0.0000000   0.0000000   0.0000000   0.0000000   0.0000000   0.0000000   0.0000000
 NMagM=    0.0000000   0.0000000   0.0000000   0.0000000   0.0000000   2.7928460   2.7928460   2.7928460   2.7928460   2.7928460
 AtZNuc=   6.0000000   6.0000000   6.0000000   6.0000000   6.0000000   1.0000000   1.0000000   1.0000000   1.0000000   1.0000000

  Atom        21          22          23          24          25          26          27          28          29          30
 IAtWgt=           1           1           1           1           1           1           1           1           1           1
 AtmWgt=   1.0078250   1.0078250   1.0078250   1.0078250   1.0078250   1.0078250   1.0078250   1.0078250   1.0078250   1.0078250
 NucSpn=           1           1           1           1           1           1           1           1           1           1
 AtZEff=  -0.0000000  -0.0000000  -0.0000000  -0.0000000  -0.0000000  -0.0000000  -0.0000000  -0.0000000  -0.0000000  -0.0000000
 NQMom=    0.0000000   0.0000000   0.0000000   0.0000000   0.0000000   0.0000000   0.0000000   0.0000000   0.0000000   0.0000000
 NMagM=    2.7928460   2.7928460   2.7928460   2.7928460   2.7928460   2.7928460   2.7928460   2.7928460   2.7928460   2.7928460
 AtZNuc=   1.0000000   1.0000000   1.0000000   1.0000000   1.0000000   1.0000000   1.0000000   1.0000000   1.0000000   1.0000000

  Atom        31          32          33          34          35          36          37          38          39          40
 IAtWgt=          12           1           1          16          14          12          12          12          12          12
 AtmWgt=  12.0000000   1.0078250   1.0078250  15.9949146  14.0030740  12.0000000  12.0000000  12.0000000  12.0000000  12.0000000
 NucSpn=           0           1           1           0           2           0           0           0           0           0
 AtZEff=  -0.0000000  -0.0000000  -0.0000000  -0.0000000  -0.0000000  -0.0000000  -0.0000000  -0.0000000  -0.0000000  -0.0000000
 NQMom=    0.0000000   0.0000000   0.0000000   0.0000000   2.0440000   0.0000000   0.0000000   0.0000000   0.0000000   0.0000000
 NMagM=    0.0000000   2.7928460   2.7928460   0.0000000   0.4037610   0.0000000   0.0000000   0.0000000   0.0000000   0.0000000
 AtZNuc=   6.0000000   1.0000000   1.0000000   8.0000000   7.0000000   6.0000000   6.0000000   6.0000000   6.0000000   6.0000000

  Atom        41          42          43          44          45          46          47          48          49          50
 IAtWgt=          12          12          12          12           1           1           1          16           1           1
 AtmWgt=  12.0000000  12.0000000  12.0000000  12.0000000   1.0078250   1.0078250   1.0078250  15.9949146   1.0078250   1.0078250
 NucSpn=           0           0           0           0           1           1           1           0           1           1
 AtZEff=  -0.0000000  -0.0000000  -0.0000000  -0.0000000  -0.0000000  -0.0000000  -0.0000000  -0.0000000  -0.0000000  -0.0000000
 NQMom=    0.0000000   0.0000000   0.0000000   0.0000000   0.0000000   0.0000000   0.0000000   0.0000000   0.0000000   0.0000000
 NMagM=    0.0000000   0.0000000   0.0000000   0.0000000   2.7928460   2.7928460   2.7928460   0.0000000   2.7928460   2.7928460
 AtZNuc=   6.0000000   6.0000000   6.0000000   6.0000000   1.0000000   1.0000000   1.0000000   8.0000000   1.0000000   1.0000000

  Atom        51          52          53          54          55          56          57          58          59          60
 IAtWgt=           1           1           1           1           1           1           1           1           1           1
 AtmWgt=   1.0078250   1.0078250   1.0078250   1.0078250   1.0078250   1.0078250   1.0078250   1.0078250   1.0078250   1.0078250
 NucSpn=           1           1           1           1           1           1           1           1           1           1
 AtZEff=  -0.0000000  -0.0000000  -0.0000000  -0.0000000  -0.0000000  -0.0000000  -0.0000000  -0.0000000  -0.0000000  -0.0000000
 NQMom=    0.0000000   0.0000000   0.0000000   0.0000000   0.0000000   0.0000000   0.0000000   0.0000000   0.0000000   0.0000000
 NMagM=    2.7928460   2.7928460   2.7928460   2.7928460   2.7928460   2.7928460   2.7928460   2.7928460   2.7928460   2.7928460
 AtZNuc=   1.0000000   1.0000000   1.0000000   1.0000000   1.0000000   1.0000000   1.0000000   1.0000000   1.0000000   1.0000000

  Atom        61          62          63
 IAtWgt=           1           1           1
 AtmWgt=   1.0078250   1.0078250   1.0078250
 NucSpn=           1           1           1
 AtZEff=  -0.0000000  -0.0000000  -0.0000000
 NQMom=    0.0000000   0.0000000   0.0000000
 NMagM=    2.7928460   2.7928460   2.7928460
 AtZNuc=   1.0000000   1.0000000   1.0000000
 Leave Link  101 at Wed Jan  8 10:41:09 2025, MaxMem=  4026531840 cpu:              27.3 elap:               3.0
 (Enter /usr/local/intel/g16/l103.exe)

 GradGradGradGradGradGradGradGradGradGradGradGradGradGradGradGradGradGrad
 Berny optimization.
 Initialization pass.
                           ----------------------------
                           !    Initial Parameters    !
                           ! (Angstroms and Degrees)  !
 --------------------------                            --------------------------
 ! Name  Definition              Value          Derivative Info.                !
 --------------------------------------------------------------------------------
 ! R1    R(1,2)                  1.4031         estimate D2E/DX2                !
 ! R2    R(1,6)                  1.4015         estimate D2E/DX2                !
 ! R3    R(1,16)                 1.0851         estimate D2E/DX2                !
 ! R4    R(2,3)                  1.4035         estimate D2E/DX2                !
 ! R5    R(2,17)                 1.0852         estimate D2E/DX2                !
 ! R6    R(3,4)                  1.401          estimate D2E/DX2                !
 ! R7    R(3,18)                 1.0852         estimate D2E/DX2                !
 ! R8    R(4,5)                  1.4055         estimate D2E/DX2                !
 ! R9    R(4,19)                 1.0851         estimate D2E/DX2                !
 ! R10   R(5,6)                  1.4052         estimate D2E/DX2                !
 ! R11   R(5,7)                  1.5177         estimate D2E/DX2                !
 ! R12   R(6,20)                 1.085          estimate D2E/DX2                !
 ! R13   R(7,21)                 1.0931         estimate D2E/DX2                !
 ! R14   R(7,31)                 1.5324         estimate D2E/DX2                !
 ! R15   R(7,34)                 1.477          estimate D2E/DX2                !
 ! R16   R(8,9)                  1.5229         estimate D2E/DX2                !
 ! R17   R(8,15)                 1.5465         estimate D2E/DX2                !
 ! R18   R(8,22)                 1.0959         estimate D2E/DX2                !
 ! R19   R(8,31)                 1.5442         estimate D2E/DX2                !
 ! R20   R(9,10)                 1.4073         estimate D2E/DX2                !
 ! R21   R(9,14)                 1.4067         estimate D2E/DX2                !
 ! R22   R(10,11)                1.4023         estimate D2E/DX2                !
 ! R23   R(10,23)                1.0862         estimate D2E/DX2                !
 ! R24   R(11,12)                1.4034         estimate D2E/DX2                !
 ! R25   R(11,24)                1.0854         estimate D2E/DX2                !
 ! R26   R(12,13)                1.4032         estimate D2E/DX2                !
 ! R27   R(12,25)                1.085          estimate D2E/DX2                !
 ! R28   R(13,14)                1.4016         estimate D2E/DX2                !
 ! R29   R(13,26)                1.0853         estimate D2E/DX2                !
 ! R30   R(14,27)                1.0869         estimate D2E/DX2                !
 ! R31   R(15,28)                1.0968         estimate D2E/DX2                !
 ! R32   R(15,29)                1.095          estimate D2E/DX2                !
 ! R33   R(15,30)                1.0965         estimate D2E/DX2                !
 ! R34   R(31,32)                1.0978         estimate D2E/DX2                !
 ! R35   R(31,33)                1.0965         estimate D2E/DX2                !
 ! R36   R(34,35)                1.4643         estimate D2E/DX2                !
 ! R37   R(35,36)                1.5086         estimate D2E/DX2                !
 ! R38   R(35,40)                1.5085         estimate D2E/DX2                !
 ! R39   R(36,37)                1.5475         estimate D2E/DX2                !
 ! R40   R(36,41)                1.5429         estimate D2E/DX2                !
 ! R41   R(36,42)                1.5506         estimate D2E/DX2                !
 ! R42   R(37,38)                1.5289         estimate D2E/DX2                !
 ! R43   R(37,45)                1.099          estimate D2E/DX2                !
 ! R44   R(37,46)                1.0972         estimate D2E/DX2                !
 ! R45   R(38,39)                1.5214         estimate D2E/DX2                !
 ! R46   R(38,47)                1.0995         estimate D2E/DX2                !
 ! R47   R(38,48)                1.4586         estimate D2E/DX2                !
 ! R48   R(39,40)                1.5445         estimate D2E/DX2                !
 ! R49   R(39,49)                1.095          estimate D2E/DX2                !
 ! R50   R(39,50)                1.0963         estimate D2E/DX2                !
 ! R51   R(40,43)                1.5515         estimate D2E/DX2                !
 ! R52   R(40,44)                1.5391         estimate D2E/DX2                !
 ! R53   R(41,51)                1.092          estimate D2E/DX2                !
 ! R54   R(41,52)                1.0945         estimate D2E/DX2                !
 ! R55   R(41,53)                1.0963         estimate D2E/DX2                !
 ! R56   R(42,54)                1.0929         estimate D2E/DX2                !
 ! R57   R(42,55)                1.0932         estimate D2E/DX2                !
 ! R58   R(42,56)                1.0959         estimate D2E/DX2                !
 ! R59   R(43,57)                1.0957         estimate D2E/DX2                !
 ! R60   R(43,58)                1.0933         estimate D2E/DX2                !
 ! R61   R(43,59)                1.0926         estimate D2E/DX2                !
 ! R62   R(44,60)                1.0933         estimate D2E/DX2                !
 ! R63   R(44,61)                1.0924         estimate D2E/DX2                !
 ! R64   R(44,62)                1.0964         estimate D2E/DX2                !
 ! R65   R(48,63)                0.9743         estimate D2E/DX2                !
 ! A1    A(2,1,6)              119.9406         estimate D2E/DX2                !
 ! A2    A(2,1,16)             120.0901         estimate D2E/DX2                !
 ! A3    A(6,1,16)             119.9688         estimate D2E/DX2                !
 ! A4    A(1,2,3)              119.5313         estimate D2E/DX2                !
 ! A5    A(1,2,17)             120.2471         estimate D2E/DX2                !
 ! A6    A(3,2,17)             120.2215         estimate D2E/DX2                !
 ! A7    A(2,3,4)              120.1757         estimate D2E/DX2                !
 ! A8    A(2,3,18)             119.9665         estimate D2E/DX2                !
 ! A9    A(4,3,18)             119.8574         estimate D2E/DX2                !
 ! A10   A(3,4,5)              120.7802         estimate D2E/DX2                !
 ! A11   A(3,4,19)             118.9978         estimate D2E/DX2                !
 ! A12   A(5,4,19)             120.2159         estimate D2E/DX2                !
 ! A13   A(4,5,6)              118.5591         estimate D2E/DX2                !
 ! A14   A(4,5,7)              122.6263         estimate D2E/DX2                !
 ! A15   A(6,5,7)              118.8049         estimate D2E/DX2                !
 ! A16   A(1,6,5)              121.0075         estimate D2E/DX2                !
 ! A17   A(1,6,20)             119.8365         estimate D2E/DX2                !
 ! A18   A(5,6,20)             119.1426         estimate D2E/DX2                !
 ! A19   A(5,7,21)             107.9083         estimate D2E/DX2                !
 ! A20   A(5,7,31)             114.1845         estimate D2E/DX2                !
 ! A21   A(5,7,34)             113.5505         estimate D2E/DX2                !
 ! A22   A(21,7,31)            109.3947         estimate D2E/DX2                !
 ! A23   A(21,7,34)            107.9478         estimate D2E/DX2                !
 ! A24   A(31,7,34)            103.6413         estimate D2E/DX2                !
 ! A25   A(9,8,15)             109.7739         estimate D2E/DX2                !
 ! A26   A(9,8,22)             107.5083         estimate D2E/DX2                !
 ! A27   A(9,8,31)             114.4908         estimate D2E/DX2                !
 ! A28   A(15,8,22)            108.23           estimate D2E/DX2                !
 ! A29   A(15,8,31)            109.5921         estimate D2E/DX2                !
 ! A30   A(22,8,31)            107.0216         estimate D2E/DX2                !
 ! A31   A(8,9,10)             122.0705         estimate D2E/DX2                !
 ! A32   A(8,9,14)             119.6449         estimate D2E/DX2                !
 ! A33   A(10,9,14)            118.2519         estimate D2E/DX2                !
 ! A34   A(9,10,11)            120.8991         estimate D2E/DX2                !
 ! A35   A(9,10,23)            119.9443         estimate D2E/DX2                !
 ! A36   A(11,10,23)           119.1551         estimate D2E/DX2                !
 ! A37   A(10,11,12)           120.2517         estimate D2E/DX2                !
 ! A38   A(10,11,24)           119.7906         estimate D2E/DX2                !
 ! A39   A(12,11,24)           119.9577         estimate D2E/DX2                !
 ! A40   A(11,12,13)           119.3872         estimate D2E/DX2                !
 ! A41   A(11,12,25)           120.277          estimate D2E/DX2                !
 ! A42   A(13,12,25)           120.3356         estimate D2E/DX2                !
 ! A43   A(12,13,14)           120.0396         estimate D2E/DX2                !
 ! A44   A(12,13,26)           120.0857         estimate D2E/DX2                !
 ! A45   A(14,13,26)           119.8736         estimate D2E/DX2                !
 ! A46   A(9,14,13)            121.1644         estimate D2E/DX2                !
 ! A47   A(9,14,27)            119.1851         estimate D2E/DX2                !
 ! A48   A(13,14,27)           119.6481         estimate D2E/DX2                !
 ! A49   A(8,15,28)            110.5585         estimate D2E/DX2                !
 ! A50   A(8,15,29)            110.8848         estimate D2E/DX2                !
 ! A51   A(8,15,30)            110.7725         estimate D2E/DX2                !
 ! A52   A(28,15,29)           107.8713         estimate D2E/DX2                !
 ! A53   A(28,15,30)           108.2803         estimate D2E/DX2                !
 ! A54   A(29,15,30)           108.3712         estimate D2E/DX2                !
 ! A55   A(7,31,8)             114.8276         estimate D2E/DX2                !
 ! A56   A(7,31,32)            108.332          estimate D2E/DX2                !
 ! A57   A(7,31,33)            109.1365         estimate D2E/DX2                !
 ! A58   A(8,31,32)            110.478          estimate D2E/DX2                !
 ! A59   A(8,31,33)            107.0479         estimate D2E/DX2                !
 ! A60   A(32,31,33)           106.7115         estimate D2E/DX2                !
 ! A61   A(7,34,35)            114.5746         estimate D2E/DX2                !
 ! A62   A(34,35,36)           108.8189         estimate D2E/DX2                !
 ! A63   A(34,35,40)           106.3801         estimate D2E/DX2                !
 ! A64   A(36,35,40)           118.4275         estimate D2E/DX2                !
 ! A65   A(35,36,37)           107.1188         estimate D2E/DX2                !
 ! A66   A(35,36,41)           108.5813         estimate D2E/DX2                !
 ! A67   A(35,36,42)           114.4817         estimate D2E/DX2                !
 ! A68   A(37,36,41)           106.8454         estimate D2E/DX2                !
 ! A69   A(37,36,42)           111.6319         estimate D2E/DX2                !
 ! A70   A(41,36,42)           107.8906         estimate D2E/DX2                !
 ! A71   A(36,37,38)           113.8246         estimate D2E/DX2                !
 ! A72   A(36,37,45)           107.7859         estimate D2E/DX2                !
 ! A73   A(36,37,46)           109.0509         estimate D2E/DX2                !
 ! A74   A(38,37,45)           110.6019         estimate D2E/DX2                !
 ! A75   A(38,37,46)           107.6187         estimate D2E/DX2                !
 ! A76   A(45,37,46)           107.7962         estimate D2E/DX2                !
 ! A77   A(37,38,39)           109.3577         estimate D2E/DX2                !
 ! A78   A(37,38,47)           110.3273         estimate D2E/DX2                !
 ! A79   A(37,38,48)           111.2206         estimate D2E/DX2                !
 ! A80   A(39,38,47)           110.6192         estimate D2E/DX2                !
 ! A81   A(39,38,48)           106.4136         estimate D2E/DX2                !
 ! A82   A(47,38,48)           108.8369         estimate D2E/DX2                !
 ! A83   A(38,39,40)           113.1924         estimate D2E/DX2                !
 ! A84   A(38,39,49)           109.7933         estimate D2E/DX2                !
 ! A85   A(38,39,50)           107.8335         estimate D2E/DX2                !
 ! A86   A(40,39,49)           108.8117         estimate D2E/DX2                !
 ! A87   A(40,39,50)           109.3381         estimate D2E/DX2                !
 ! A88   A(49,39,50)           107.7283         estimate D2E/DX2                !
 ! A89   A(35,40,39)           107.5147         estimate D2E/DX2                !
 ! A90   A(35,40,43)           114.0565         estimate D2E/DX2                !
 ! A91   A(35,40,44)           108.2654         estimate D2E/DX2                !
 ! A92   A(39,40,43)           111.4176         estimate D2E/DX2                !
 ! A93   A(39,40,44)           107.5781         estimate D2E/DX2                !
 ! A94   A(43,40,44)           107.7873         estimate D2E/DX2                !
 ! A95   A(36,41,51)           111.8499         estimate D2E/DX2                !
 ! A96   A(36,41,52)           110.4414         estimate D2E/DX2                !
 ! A97   A(36,41,53)           109.3951         estimate D2E/DX2                !
 ! A98   A(51,41,52)           109.5247         estimate D2E/DX2                !
 ! A99   A(51,41,53)           107.1534         estimate D2E/DX2                !
 ! A100  A(52,41,53)           108.3612         estimate D2E/DX2                !
 ! A101  A(36,42,54)           113.0988         estimate D2E/DX2                !
 ! A102  A(36,42,55)           109.3448         estimate D2E/DX2                !
 ! A103  A(36,42,56)           109.4581         estimate D2E/DX2                !
 ! A104  A(54,42,55)           108.6982         estimate D2E/DX2                !
 ! A105  A(54,42,56)           107.8451         estimate D2E/DX2                !
 ! A106  A(55,42,56)           108.2778         estimate D2E/DX2                !
 ! A107  A(40,43,57)           109.086          estimate D2E/DX2                !
 ! A108  A(40,43,58)           109.7351         estimate D2E/DX2                !
 ! A109  A(40,43,59)           113.2819         estimate D2E/DX2                !
 ! A110  A(57,43,58)           108.4647         estimate D2E/DX2                !
 ! A111  A(57,43,59)           107.5325         estimate D2E/DX2                !
 ! A112  A(58,43,59)           108.6163         estimate D2E/DX2                !
 ! A113  A(40,44,60)           110.7629         estimate D2E/DX2                !
 ! A114  A(40,44,61)           111.0019         estimate D2E/DX2                !
 ! A115  A(40,44,62)           109.3382         estimate D2E/DX2                !
 ! A116  A(60,44,61)           108.5132         estimate D2E/DX2                !
 ! A117  A(60,44,62)           108.7777         estimate D2E/DX2                !
 ! A118  A(61,44,62)           108.3852         estimate D2E/DX2                !
 ! A119  A(38,48,63)           110.4517         estimate D2E/DX2                !
 ! D1    D(6,1,2,3)              0.2838         estimate D2E/DX2                !
 ! D2    D(6,1,2,17)          -179.8627         estimate D2E/DX2                !
 ! D3    D(16,1,2,3)          -179.9804         estimate D2E/DX2                !
 ! D4    D(16,1,2,17)           -0.1268         estimate D2E/DX2                !
 ! D5    D(2,1,6,5)              0.3431         estimate D2E/DX2                !
 ! D6    D(2,1,6,20)           179.0033         estimate D2E/DX2                !
 ! D7    D(16,1,6,5)          -179.3931         estimate D2E/DX2                !
 ! D8    D(16,1,6,20)           -0.7328         estimate D2E/DX2                !
 ! D9    D(1,2,3,4)             -0.4115         estimate D2E/DX2                !
 ! D10   D(1,2,3,18)           179.8278         estimate D2E/DX2                !
 ! D11   D(17,2,3,4)           179.7349         estimate D2E/DX2                !
 ! D12   D(17,2,3,18)           -0.0258         estimate D2E/DX2                !
 ! D13   D(2,3,4,5)             -0.0848         estimate D2E/DX2                !
 ! D14   D(2,3,4,19)          -179.1877         estimate D2E/DX2                !
 ! D15   D(18,3,4,5)           179.6762         estimate D2E/DX2                !
 ! D16   D(18,3,4,19)            0.5733         estimate D2E/DX2                !
 ! D17   D(3,4,5,6)              0.6963         estimate D2E/DX2                !
 ! D18   D(3,4,5,7)           -178.1592         estimate D2E/DX2                !
 ! D19   D(19,4,5,6)           179.7883         estimate D2E/DX2                !
 ! D20   D(19,4,5,7)             0.9328         estimate D2E/DX2                !
 ! D21   D(4,5,6,1)             -0.8266         estimate D2E/DX2                !
 ! D22   D(4,5,6,20)          -179.496          estimate D2E/DX2                !
 ! D23   D(7,5,6,1)            178.0734         estimate D2E/DX2                !
 ! D24   D(7,5,6,20)            -0.596          estimate D2E/DX2                !
 ! D25   D(4,5,7,21)          -154.1026         estimate D2E/DX2                !
 ! D26   D(4,5,7,31)           -32.2535         estimate D2E/DX2                !
 ! D27   D(4,5,7,34)            86.2861         estimate D2E/DX2                !
 ! D28   D(6,5,7,21)            27.0446         estimate D2E/DX2                !
 ! D29   D(6,5,7,31)           148.8937         estimate D2E/DX2                !
 ! D30   D(6,5,7,34)           -92.5667         estimate D2E/DX2                !
 ! D31   D(5,7,31,8)          -177.976          estimate D2E/DX2                !
 ! D32   D(5,7,31,32)          -53.9633         estimate D2E/DX2                !
 ! D33   D(5,7,31,33)           61.8612         estimate D2E/DX2                !
 ! D34   D(21,7,31,8)          -56.9476         estimate D2E/DX2                !
 ! D35   D(21,7,31,32)          67.0651         estimate D2E/DX2                !
 ! D36   D(21,7,31,33)        -177.1104         estimate D2E/DX2                !
 ! D37   D(34,7,31,8)           57.9887         estimate D2E/DX2                !
 ! D38   D(34,7,31,32)        -177.9986         estimate D2E/DX2                !
 ! D39   D(34,7,31,33)         -62.1741         estimate D2E/DX2                !
 ! D40   D(5,7,34,35)           59.2723         estimate D2E/DX2                !
 ! D41   D(21,7,34,35)         -60.3165         estimate D2E/DX2                !
 ! D42   D(31,7,34,35)        -176.2802         estimate D2E/DX2                !
 ! D43   D(15,8,9,10)          -84.6041         estimate D2E/DX2                !
 ! D44   D(15,8,9,14)           93.2775         estimate D2E/DX2                !
 ! D45   D(22,8,9,10)          157.8802         estimate D2E/DX2                !
 ! D46   D(22,8,9,14)          -24.2383         estimate D2E/DX2                !
 ! D47   D(31,8,9,10)           39.1294         estimate D2E/DX2                !
 ! D48   D(31,8,9,14)         -142.9891         estimate D2E/DX2                !
 ! D49   D(9,8,15,28)           62.7833         estimate D2E/DX2                !
 ! D50   D(9,8,15,29)          -56.8143         estimate D2E/DX2                !
 ! D51   D(9,8,15,30)         -177.1802         estimate D2E/DX2                !
 ! D52   D(22,8,15,28)         179.848          estimate D2E/DX2                !
 ! D53   D(22,8,15,29)          60.2505         estimate D2E/DX2                !
 ! D54   D(22,8,15,30)         -60.1154         estimate D2E/DX2                !
 ! D55   D(31,8,15,28)         -63.7688         estimate D2E/DX2                !
 ! D56   D(31,8,15,29)         176.6337         estimate D2E/DX2                !
 ! D57   D(31,8,15,30)          56.2678         estimate D2E/DX2                !
 ! D58   D(9,8,31,7)            54.6965         estimate D2E/DX2                !
 ! D59   D(9,8,31,32)          -68.1714         estimate D2E/DX2                !
 ! D60   D(9,8,31,33)          176.0069         estimate D2E/DX2                !
 ! D61   D(15,8,31,7)          178.5272         estimate D2E/DX2                !
 ! D62   D(15,8,31,32)          55.6593         estimate D2E/DX2                !
 ! D63   D(15,8,31,33)         -60.1625         estimate D2E/DX2                !
 ! D64   D(22,8,31,7)          -64.3284         estimate D2E/DX2                !
 ! D65   D(22,8,31,32)         172.8037         estimate D2E/DX2                !
 ! D66   D(22,8,31,33)          56.982          estimate D2E/DX2                !
 ! D67   D(8,9,10,11)          178.7737         estimate D2E/DX2                !
 ! D68   D(8,9,10,23)           -1.6862         estimate D2E/DX2                !
 ! D69   D(14,9,10,11)           0.8638         estimate D2E/DX2                !
 ! D70   D(14,9,10,23)        -179.596          estimate D2E/DX2                !
 ! D71   D(8,9,14,13)         -178.5061         estimate D2E/DX2                !
 ! D72   D(8,9,14,27)            2.0663         estimate D2E/DX2                !
 ! D73   D(10,9,14,13)          -0.5441         estimate D2E/DX2                !
 ! D74   D(10,9,14,27)        -179.9716         estimate D2E/DX2                !
 ! D75   D(9,10,11,12)          -0.4884         estimate D2E/DX2                !
 ! D76   D(9,10,11,24)         179.4797         estimate D2E/DX2                !
 ! D77   D(23,10,11,12)        179.9679         estimate D2E/DX2                !
 ! D78   D(23,10,11,24)         -0.0641         estimate D2E/DX2                !
 ! D79   D(10,11,12,13)         -0.2264         estimate D2E/DX2                !
 ! D80   D(10,11,12,25)        179.8757         estimate D2E/DX2                !
 ! D81   D(24,11,12,13)        179.8056         estimate D2E/DX2                !
 ! D82   D(24,11,12,25)         -0.0922         estimate D2E/DX2                !
 ! D83   D(11,12,13,14)          0.5433         estimate D2E/DX2                !
 ! D84   D(11,12,13,26)       -179.8556         estimate D2E/DX2                !
 ! D85   D(25,12,13,14)       -179.5589         estimate D2E/DX2                !
 ! D86   D(25,12,13,26)          0.0422         estimate D2E/DX2                !
 ! D87   D(12,13,14,9)          -0.1545         estimate D2E/DX2                !
 ! D88   D(12,13,14,27)        179.2705         estimate D2E/DX2                !
 ! D89   D(26,13,14,9)        -179.7564         estimate D2E/DX2                !
 ! D90   D(26,13,14,27)         -0.3315         estimate D2E/DX2                !
 ! D91   D(7,34,35,36)         102.048          estimate D2E/DX2                !
 ! D92   D(7,34,35,40)        -129.3152         estimate D2E/DX2                !
 ! D93   D(34,35,36,37)        174.8996         estimate D2E/DX2                !
 ! D94   D(34,35,36,41)        -70.0484         estimate D2E/DX2                !
 ! D95   D(34,35,36,42)         50.5612         estimate D2E/DX2                !
 ! D96   D(40,35,36,37)         53.3481         estimate D2E/DX2                !
 ! D97   D(40,35,36,41)        168.4001         estimate D2E/DX2                !
 ! D98   D(40,35,36,42)        -70.9903         estimate D2E/DX2                !
 ! D99   D(34,35,40,39)       -176.9049         estimate D2E/DX2                !
 ! D100  D(34,35,40,43)        -52.8342         estimate D2E/DX2                !
 ! D101  D(34,35,40,44)         67.1413         estimate D2E/DX2                !
 ! D102  D(36,35,40,39)        -54.1232         estimate D2E/DX2                !
 ! D103  D(36,35,40,43)         69.9475         estimate D2E/DX2                !
 ! D104  D(36,35,40,44)       -170.077          estimate D2E/DX2                !
 ! D105  D(35,36,37,38)        -52.6848         estimate D2E/DX2                !
 ! D106  D(35,36,37,45)       -175.751          estimate D2E/DX2                !
 ! D107  D(35,36,37,46)         67.4828         estimate D2E/DX2                !
 ! D108  D(41,36,37,38)       -168.8925         estimate D2E/DX2                !
 ! D109  D(41,36,37,45)         68.0413         estimate D2E/DX2                !
 ! D110  D(41,36,37,46)        -48.7249         estimate D2E/DX2                !
 ! D111  D(42,36,37,38)         73.3735         estimate D2E/DX2                !
 ! D112  D(42,36,37,45)        -49.6927         estimate D2E/DX2                !
 ! D113  D(42,36,37,46)       -166.4589         estimate D2E/DX2                !
 ! D114  D(35,36,41,51)         75.3646         estimate D2E/DX2                !
 ! D115  D(35,36,41,52)        -46.8933         estimate D2E/DX2                !
 ! D116  D(35,36,41,53)       -166.0776         estimate D2E/DX2                !
 ! D117  D(37,36,41,51)       -169.4055         estimate D2E/DX2                !
 ! D118  D(37,36,41,52)         68.3366         estimate D2E/DX2                !
 ! D119  D(37,36,41,53)        -50.8477         estimate D2E/DX2                !
 ! D120  D(42,36,41,51)        -49.2412         estimate D2E/DX2                !
 ! D121  D(42,36,41,52)       -171.4991         estimate D2E/DX2                !
 ! D122  D(42,36,41,53)         69.3166         estimate D2E/DX2                !
 ! D123  D(35,36,42,54)         80.5042         estimate D2E/DX2                !
 ! D124  D(35,36,42,55)        -40.7688         estimate D2E/DX2                !
 ! D125  D(35,36,42,56)       -159.2295         estimate D2E/DX2                !
 ! D126  D(37,36,42,54)        -41.4007         estimate D2E/DX2                !
 ! D127  D(37,36,42,55)       -162.6737         estimate D2E/DX2                !
 ! D128  D(37,36,42,56)         78.8656         estimate D2E/DX2                !
 ! D129  D(41,36,42,54)       -158.5045         estimate D2E/DX2                !
 ! D130  D(41,36,42,55)         80.2226         estimate D2E/DX2                !
 ! D131  D(41,36,42,56)        -38.2382         estimate D2E/DX2                !
 ! D132  D(36,37,38,39)         56.414          estimate D2E/DX2                !
 ! D133  D(36,37,38,47)        -65.4696         estimate D2E/DX2                !
 ! D134  D(36,37,38,48)        173.6529         estimate D2E/DX2                !
 ! D135  D(45,37,38,39)        177.9288         estimate D2E/DX2                !
 ! D136  D(45,37,38,47)         56.0453         estimate D2E/DX2                !
 ! D137  D(45,37,38,48)        -64.8323         estimate D2E/DX2                !
 ! D138  D(46,37,38,39)        -64.5572         estimate D2E/DX2                !
 ! D139  D(46,37,38,47)        173.5593         estimate D2E/DX2                !
 ! D140  D(46,37,38,48)         52.6817         estimate D2E/DX2                !
 ! D141  D(37,38,39,40)        -56.7023         estimate D2E/DX2                !
 ! D142  D(37,38,39,49)       -178.5072         estimate D2E/DX2                !
 ! D143  D(37,38,39,50)         64.3804         estimate D2E/DX2                !
 ! D144  D(47,38,39,40)         65.0055         estimate D2E/DX2                !
 ! D145  D(47,38,39,49)        -56.7994         estimate D2E/DX2                !
 ! D146  D(47,38,39,50)       -173.9118         estimate D2E/DX2                !
 ! D147  D(48,38,39,40)       -176.93           estimate D2E/DX2                !
 ! D148  D(48,38,39,49)         61.2651         estimate D2E/DX2                !
 ! D149  D(48,38,39,50)        -55.8474         estimate D2E/DX2                !
 ! D150  D(37,38,48,63)         59.524          estimate D2E/DX2                !
 ! D151  D(39,38,48,63)        178.5404         estimate D2E/DX2                !
 ! D152  D(47,38,48,63)        -62.2252         estimate D2E/DX2                !
 ! D153  D(38,39,40,35)         53.8182         estimate D2E/DX2                !
 ! D154  D(38,39,40,43)        -71.84           estimate D2E/DX2                !
 ! D155  D(38,39,40,44)        170.2242         estimate D2E/DX2                !
 ! D156  D(49,39,40,35)        176.1717         estimate D2E/DX2                !
 ! D157  D(49,39,40,43)         50.5135         estimate D2E/DX2                !
 ! D158  D(49,39,40,44)        -67.4224         estimate D2E/DX2                !
 ! D159  D(50,39,40,35)        -66.4108         estimate D2E/DX2                !
 ! D160  D(50,39,40,43)        167.931          estimate D2E/DX2                !
 ! D161  D(50,39,40,44)         49.9952         estimate D2E/DX2                !
 ! D162  D(35,40,43,57)        164.6384         estimate D2E/DX2                !
 ! D163  D(35,40,43,58)         45.9409         estimate D2E/DX2                !
 ! D164  D(35,40,43,59)        -75.6317         estimate D2E/DX2                !
 ! D165  D(39,40,43,57)        -73.4151         estimate D2E/DX2                !
 ! D166  D(39,40,43,58)        167.8875         estimate D2E/DX2                !
 ! D167  D(39,40,43,59)         46.3149         estimate D2E/DX2                !
 ! D168  D(44,40,43,57)         44.3946         estimate D2E/DX2                !
 ! D169  D(44,40,43,58)        -74.3028         estimate D2E/DX2                !
 ! D170  D(44,40,43,59)        164.1246         estimate D2E/DX2                !
 ! D171  D(35,40,44,60)         50.1159         estimate D2E/DX2                !
 ! D172  D(35,40,44,61)        -70.5004         estimate D2E/DX2                !
 ! D173  D(35,40,44,62)        169.9764         estimate D2E/DX2                !
 ! D174  D(39,40,44,60)        -65.7967         estimate D2E/DX2                !
 ! D175  D(39,40,44,61)        173.587          estimate D2E/DX2                !
 ! D176  D(39,40,44,62)         54.0638         estimate D2E/DX2                !
 ! D177  D(43,40,44,60)        173.944          estimate D2E/DX2                !
 ! D178  D(43,40,44,61)         53.3277         estimate D2E/DX2                !
 ! D179  D(43,40,44,62)        -66.1955         estimate D2E/DX2                !
 --------------------------------------------------------------------------------
 Trust Radius=3.00D-01 FncErr=1.00D-07 GrdErr=1.00D-06 EigMax=2.50D+02 EigMin=1.00D-04
 Number of steps in this run=    373 maximum allowed number of steps=    378.
 GradGradGradGradGradGradGradGradGradGradGradGradGradGradGradGradGradGrad

 Leave Link  103 at Wed Jan  8 10:41:10 2025, MaxMem=  4026531840 cpu:               0.5 elap:               0.4
 (Enter /usr/local/intel/g16/l202.exe)
 Stoichiometry    C25H35NO2
 Framework group  C1[X(C25H35NO2)]
 Deg. of freedom   183
 Full point group                 C1      NOp   1
 Largest Abelian subgroup         C1      NOp   1
 Largest concise Abelian subgroup C1      NOp   1
                         Standard orientation:                         
 ---------------------------------------------------------------------
 Center     Atomic      Atomic             Coordinates (Angstroms)
 Number     Number       Type             X           Y           Z
 ---------------------------------------------------------------------
      1          6           0       -1.920059    3.165410   -2.136883
      2          6           0       -2.271754    4.256293   -1.327604
      3          6           0       -1.702885    4.382224   -0.050772
      4          6           0       -0.797019    3.420142    0.414585
      5          6           0       -0.445494    2.317822   -0.383321
      6          6           0       -1.011056    2.208705   -1.664996
      7          6           0        0.499229    1.230227    0.094101
      8          6           0        2.588284    0.636597    1.509509
      9          6           0        3.275148   -0.107856    0.372284
     10          6           0        3.697836    0.545111   -0.800502
     11          6           0        4.350928   -0.159875   -1.821746
     12          6           0        4.602874   -1.533506   -1.683232
     13          6           0        4.199594   -2.192857   -0.512101
     14          6           0        3.541381   -1.483035    0.501567
     15          6           0        3.651066    1.268358    2.438476
     16          1           0       -2.354145    3.059301   -3.125721
     17          1           0       -2.976796    4.998798   -1.687127
     18          1           0       -1.967762    5.224684    0.579993
     19          1           0       -0.378903    3.529263    1.409968
     20          1           0       -0.752655    1.357212   -2.285810
     21          1           0        0.966011    0.780306   -0.786008
     22          1           0        2.019908   -0.099348    2.089509
     23          1           0        3.512366    1.607986   -0.926191
     24          1           0        4.661702    0.360054   -2.722398
     25          1           0        5.106378   -2.079806   -2.474018
     26          1           0        4.390813   -3.254433   -0.392058
     27          1           0        3.221229   -2.002586    1.400909
     28          1           0        4.245846    2.011671    1.893717
     29          1           0        4.336426    0.505788    2.822811
     30          1           0        3.175179    1.766719    3.291363
     31          6           0        1.588966    1.721646    1.052876
     32          1           0        2.119340    2.555422    0.574586
     33          1           0        1.117244    2.125070    1.956765
     34          8           0       -0.173013    0.155584    0.852226
     35          7           0       -1.220748   -0.549152    0.110664
     36          6           0       -0.675463   -1.874084   -0.361561
     37          6           0       -1.846668   -2.638770   -1.023683
     38          6           0       -3.089713   -2.749553   -0.140414
     39          6           0       -3.541531   -1.356333    0.271419
     40          6           0       -2.441801   -0.549740    0.996389
     41          6           0        0.368110   -1.610390   -1.467011
     42          6           0        0.006210   -2.719593    0.745113
     43          6           0       -2.186341   -1.097493    2.425302
     44          6           0       -2.940904    0.899982    1.130842
     45          1           0       -1.480698   -3.636662   -1.303201
     46          1           0       -2.138867   -2.118673   -1.944526
     47          1           0       -2.875288   -3.364692    0.745361
     48          8           0       -4.203789   -3.345506   -0.869171
     49          1           0       -4.416168   -1.428624    0.926328
     50          1           0       -3.846670   -0.820645   -0.635165
     51          1           0        1.309982   -1.240027   -1.056790
     52          1           0       -0.020577   -0.892748   -2.196277
     53          1           0        0.589671   -2.548284   -1.989730
     54          1           0       -0.706865   -3.265528    1.368016
     55          1           0        0.601785   -2.064350    1.386255
     56          1           0        0.678129   -3.451853    0.283273
     57          1           0       -3.023668   -0.814055    3.072656
     58          1           0       -1.270986   -0.658246    2.830877
     59          1           0       -2.096486   -2.185781    2.460945
     60          1           0       -3.034865    1.370246    0.148295
     61          1           0       -2.254181    1.495908    1.736370
     62          1           0       -3.922862    0.902139    1.618494
     63          1           0       -3.967547   -4.237369   -1.182377
 ---------------------------------------------------------------------
 Rotational constants (GHZ):           0.2093124           0.1527052           0.1119357
 Leave Link  202 at Wed Jan  8 10:41:12 2025, MaxMem=  4026531840 cpu:               0.1 elap:               1.7
 (Enter /usr/local/intel/g16/l301.exe)
 Standard basis: def2TZVP (5D, 7F)
 Ernie: Thresh=  0.10000D-02 Tol=  0.10000D-05 Strict=F.
 There are  1218 symmetry adapted cartesian basis functions of A   symmetry.
 There are  1078 symmetry adapted basis functions of A   symmetry.
  1078 basis functions,  1708 primitive gaussians,  1218 cartesian basis functions
   104 alpha electrons      104 beta electrons
       nuclear repulsion energy      2857.6639171248 Hartrees.
 IExCor= 4336 DFT=T Ex+Corr=M062X ExCW=0 ScaHFX=  0.540000
 ScaDFX=  1.000000  1.000000  1.000000  1.000000 ScalE2=  1.000000  1.000000
 IRadAn=      5 IRanWt=     -1 IRanGd=            0 ICorTp=0 IEmpDi=  4
 NAtoms=   63 NActive=   63 NUniq=   63 SFac= 1.00D+00 NAtFMM=   60 NAOKFM=T Big=T
 Integral buffers will be    131072 words long.
 Raffenetti 2 integral format.
 Two-electron integral symmetry is turned on.
 Leave Link  301 at Wed Jan  8 10:41:15 2025, MaxMem=  4026531840 cpu:               1.1 elap:               0.1
 (Enter /usr/local/intel/g16/l302.exe)
 NPDir=0 NMtPBC=     1 NCelOv=     1 NCel=       1 NClECP=     1 NCelD=      1
         NCelK=      1 NCelE2=     1 NClLst=     1 CellRange=     0.0.
 One-electron integrals computed using PRISM.
 One-electron integral symmetry used in STVInt
   1 Symmetry operations used in ECPInt.
 ECPInt:  NShTT=  100576 NPrTT=  297556 LenC2=   87079 LenP2D=  180078.
 LDataN:  DoStor=T MaxTD1= 6 Len=  172
 NBasis=  1078 RedAO= T EigKep=  7.12D-06  NBF=  1078
 NBsUse=  1078 1.00D-06 EigRej= -1.00D+00 NBFU=  1078
 Precomputing XC quadrature grid using
 IXCGrd= 4 IRadAn=           5 IRanWt=          -1 IRanGd=           0 AccXCQ= 0.00D+00.
 Generated NRdTot=       0 NPtTot=           0 NUsed=           0 NTot=          32
 NSgBfM=  1194  1193  1194  1194  1194 MxSgAt=    63 MxSgA2=    63.
 Leave Link  302 at Wed Jan  8 10:41:23 2025, MaxMem=  4026531840 cpu:              79.8 elap:               4.0
 (Enter /usr/local/intel/g16/l303.exe)
 DipDrv:  MaxL=1.
 Leave Link  303 at Wed Jan  8 10:41:27 2025, MaxMem=  4026531840 cpu:               8.7 elap:               2.1
 (Enter /usr/local/intel/g16/l401.exe)
 ExpMin= 9.52D-02 ExpMax= 2.70D+04 ExpMxC= 9.22D+02 IAcc=3 IRadAn=         5 AccDes= 0.00D+00
 Harris functional with IExCor= 1009 and IRadAn=       5 diagonalized for initial guess.
 HarFok:  IExCor= 1009 AccDes= 0.00D+00 IRadAn=         5 IDoV= 1 UseB2=F ITyADJ=14
 ICtDFT=  3500011 ScaDFX=  1.000000  1.000000  1.000000  1.000000
 FoFCou: FMM=F IPFlag=           0 FMFlag=      100000 FMFlg1=        2001
         NFxFlg=           0 DoJE=T BraDBF=F KetDBF=T FulRan=T
         wScrn=  0.000000 ICntrl=       500 IOpCl=  0 I1Cent=   200000004 NGrid=           0
         NMat0=    1 NMatS0=      1 NMatT0=    0 NMatD0=    1 NMtDS0=    0 NMtDT0=    0
 Petite list used in FoFCou.
 Harris En= -1178.36241342131    
 JPrj=0 DoOrth=F DoCkMO=F.
 Leave Link  401 at Wed Jan  8 10:41:41 2025, MaxMem=  4026531840 cpu:             254.0 elap:              12.8
 (Enter /usr/local/intel/g16/l502.exe)
 Integral symmetry usage will be decided dynamically.
 Closed shell SCF:
 Using DIIS extrapolation, IDIIS=  1040.
 NGot=  4026531840 LenX=  4023528030 LenY=  4022043288
 Requested convergence on RMS density matrix=1.00D-08 within 128 cycles.
 Requested convergence on MAX density matrix=1.00D-06.
 Requested convergence on             energy=1.00D-06.
 No special actions if energy rises.
 Fock matrices will be formed incrementally for  20 cycles.
 Integral accuracy reduced to 1.0D-05 until final iterations.

 Cycle   1  Pass 0  IDiag  1:
 FoFJK:  IHMeth= 1 ICntrl=       0 DoSepK=F KAlg= 0 I1Cent=           0 FoldK=F
 IRaf= 910000000 NMat=       1 IRICut=       1 DoRegI=T DoRafI=F ISym2E= 0 IDoP0=0 IntGTp=1.
 FoFCou: FMM=T IPFlag=           0 FMFlag=      100000 FMFlg1=        2001
         NFxFlg=           0 DoJE=F BraDBF=F KetDBF=F FulRan=T
         wScrn=  0.000000 ICntrl=         0 IOpCl=  0 I1Cent=           0 NGrid=           0
         NMat0=    1 NMatS0=      1 NMatT0=    0 NMatD0=    1 NMtDS0=    0 NMtDT0=    0
 Symmetry not used in FoFCou.
 FMM levels:  10  Number of levels for PrismC:   9
 E= -1177.96560465285    
 DIIS: error= 2.03D-02 at cycle   1 NSaved=   1.
 NSaved= 1 IEnMin= 1 EnMin= -1177.96560465285     IErMin= 1 ErrMin= 2.03D-02
 ErrMax= 2.03D-02  0.00D+00 EMaxC= 1.00D-01 BMatC= 9.73D-01 BMatP= 9.73D-01
 IDIUse=3 WtCom= 7.97D-01 WtEn= 2.03D-01
 Coeff-Com:  0.100D+01
 Coeff-En:   0.100D+01
 Coeff:      0.100D+01
 Gap=     0.361 Goal=   None    Shift=    0.000
 GapD=    0.361 DampG=1.000 DampE=0.500 DampFc=0.5000 IDamp=-1.
 Damping current iteration by 5.00D-01
 RMSDP=9.53D+01 MaxDP=9.67D+03              OVMax= 9.96D-01

 Problem detected with inexpensive integrals.
 Switching to full accuracy and repeating last cycle.
 Cycle   2  Pass 1  IDiag  1:
 E= -1177.96544036454     Delta-E=        0.000164288316 Rises=F Damp=F
 DIIS: error= 2.03D-02 at cycle   1 NSaved=   1.
 NSaved= 1 IEnMin= 1 EnMin= -1177.96544036454     IErMin= 1 ErrMin= 2.03D-02
 ErrMax= 2.03D-02  0.00D+00 EMaxC= 1.00D-01 BMatC= 9.72D-01 BMatP= 9.72D-01
 IDIUse=3 WtCom= 7.97D-01 WtEn= 2.03D-01
 Coeff-Com:  0.100D+01
 Coeff-En:   0.100D+01
 Coeff:      0.100D+01
 Gap=     0.361 Goal=   None    Shift=    0.000
 GapD=    0.361 DampG=1.000 DampE=0.500 DampFc=0.5000 IDamp=-1.
 Damping current iteration by 5.00D-01
 RMSDP=2.58D-03 MaxDP=6.98D-01 DE= 1.64D-04 OVMax= 1.42D-01

 Cycle   3  Pass 1  IDiag  1:
 RMSU=  1.28D-03    CP:  9.78D-01
 E= -1178.40145156060     Delta-E=       -0.436011196062 Rises=F Damp=T
 DIIS: error= 3.43D-03 at cycle   2 NSaved=   2.
 NSaved= 2 IEnMin= 2 EnMin= -1178.40145156060     IErMin= 2 ErrMin= 3.43D-03
 ErrMax= 3.43D-03  0.00D+00 EMaxC= 1.00D-01 BMatC= 6.97D-02 BMatP= 9.72D-01
 IDIUse=3 WtCom= 9.66D-01 WtEn= 3.43D-02
 Coeff-Com: -0.135D+00 0.114D+01
 Coeff-En:   0.000D+00 0.100D+01
 Coeff:     -0.131D+00 0.113D+01
 Gap=     0.367 Goal=   None    Shift=    0.000
 GapD=    0.367 DampG=1.000 DampE=1.000 DampFc=1.0000 IDamp=-1.
 RMSDP=1.05D-03 MaxDP=1.36D-01 DE=-4.36D-01 OVMax= 7.18D-02

 Cycle   4  Pass 1  IDiag  1:
 RMSU=  1.04D-03    CP:  9.45D-01  9.90D-01
 E= -1178.79958744069     Delta-E=       -0.398135880094 Rises=F Damp=F
 DIIS: error= 2.54D-03 at cycle   3 NSaved=   3.
 NSaved= 3 IEnMin= 3 EnMin= -1178.79958744069     IErMin= 3 ErrMin= 2.54D-03
 ErrMax= 2.54D-03  0.00D+00 EMaxC= 1.00D-01 BMatC= 1.11D-02 BMatP= 6.97D-02
 IDIUse=3 WtCom= 9.75D-01 WtEn= 2.54D-02
 Coeff-Com: -0.860D-01 0.305D+00 0.781D+00
 Coeff-En:   0.000D+00 0.000D+00 0.100D+01
 Coeff:     -0.838D-01 0.297D+00 0.787D+00
 Gap=     0.301 Goal=   None    Shift=    0.000
 RMSDP=2.22D-04 MaxDP=6.01D-02 DE=-3.98D-01 OVMax= 1.76D-02

 Cycle   5  Pass 1  IDiag  1:
 RMSU=  1.55D-04    CP:  9.46D-01  1.09D+00  9.16D-01
 E= -1178.80687853552     Delta-E=       -0.007291094827 Rises=F Damp=F
 DIIS: error= 1.12D-03 at cycle   4 NSaved=   4.
 NSaved= 4 IEnMin= 4 EnMin= -1178.80687853552     IErMin= 4 ErrMin= 1.12D-03
 ErrMax= 1.12D-03  0.00D+00 EMaxC= 1.00D-01 BMatC= 2.42D-03 BMatP= 1.11D-02
 IDIUse=3 WtCom= 9.89D-01 WtEn= 1.12D-02
 Coeff-Com: -0.324D-01 0.838D-01 0.378D+00 0.571D+00
 Coeff-En:   0.000D+00 0.000D+00 0.640D-01 0.936D+00
 Coeff:     -0.320D-01 0.829D-01 0.374D+00 0.575D+00
 Gap=     0.291 Goal=   None    Shift=    0.000
 RMSDP=8.67D-05 MaxDP=2.52D-02 DE=-7.29D-03 OVMax= 8.59D-03

 Cycle   6  Pass 1  IDiag  1:
 RMSU=  5.07D-05    CP:  9.44D-01  1.06D+00  9.44D-01  6.78D-01
 E= -1178.80865924233     Delta-E=       -0.001780706810 Rises=F Damp=F
 DIIS: error= 2.50D-04 at cycle   5 NSaved=   5.
 NSaved= 5 IEnMin= 5 EnMin= -1178.80865924233     IErMin= 5 ErrMin= 2.50D-04
 ErrMax= 2.50D-04  0.00D+00 EMaxC= 1.00D-01 BMatC= 1.23D-04 BMatP= 2.42D-03
 IDIUse=3 WtCom= 9.97D-01 WtEn= 2.50D-03
 Coeff-Com: -0.694D-02 0.134D-01 0.974D-01 0.242D+00 0.654D+00
 Coeff-En:   0.000D+00 0.000D+00 0.000D+00 0.000D+00 0.100D+01
 Coeff:     -0.692D-02 0.133D-01 0.972D-01 0.241D+00 0.655D+00
 Gap=     0.294 Goal=   None    Shift=    0.000
 RMSDP=1.94D-05 MaxDP=3.10D-03 DE=-1.78D-03 OVMax= 2.62D-03

 Cycle   7  Pass 1  IDiag  1:
 RMSU=  1.45D-05    CP:  9.44D-01  1.06D+00  9.44D-01  7.22D-01  7.87D-01
 E= -1178.80875885768     Delta-E=       -0.000099615354 Rises=F Damp=F
 DIIS: error= 9.13D-05 at cycle   6 NSaved=   6.
 NSaved= 6 IEnMin= 6 EnMin= -1178.80875885768     IErMin= 6 ErrMin= 9.13D-05
 ErrMax= 9.13D-05  0.00D+00 EMaxC= 1.00D-01 BMatC= 1.18D-05 BMatP= 1.23D-04
 IDIUse=1 WtCom= 1.00D+00 WtEn= 0.00D+00
 Coeff-Com: -0.900D-03 0.325D-03 0.201D-01 0.742D-01 0.305D+00 0.601D+00
 Coeff:     -0.900D-03 0.325D-03 0.201D-01 0.742D-01 0.305D+00 0.601D+00
 Gap=     0.293 Goal=   None    Shift=    0.000
 RMSDP=5.01D-06 MaxDP=6.11D-04 DE=-9.96D-05 OVMax= 8.90D-04

 Cycle   8  Pass 1  IDiag  1:
 RMSU=  4.57D-06    CP:  9.44D-01  1.06D+00  9.45D-01  7.21D-01  8.26D-01
                    CP:  9.69D-01
 E= -1178.80876949319     Delta-E=       -0.000010635509 Rises=F Damp=F
 DIIS: error= 1.98D-05 at cycle   7 NSaved=   7.
 NSaved= 7 IEnMin= 7 EnMin= -1178.80876949319     IErMin= 7 ErrMin= 1.98D-05
 ErrMax= 1.98D-05  0.00D+00 EMaxC= 1.00D-01 BMatC= 1.13D-06 BMatP= 1.18D-05
 IDIUse=1 WtCom= 1.00D+00 WtEn= 0.00D+00
 Coeff-Com:  0.883D-03-0.226D-02-0.907D-02-0.135D-01 0.350D-02 0.236D+00
 Coeff-Com:  0.785D+00
 Coeff:      0.883D-03-0.226D-02-0.907D-02-0.135D-01 0.350D-02 0.236D+00
 Coeff:      0.785D+00
 Gap=     0.293 Goal=   None    Shift=    0.000
 RMSDP=2.45D-06 MaxDP=4.34D-04 DE=-1.06D-05 OVMax= 2.23D-04

 Cycle   9  Pass 1  IDiag  1:
 RMSU=  1.53D-06    CP:  9.44D-01  1.06D+00  9.45D-01  7.23D-01  8.45D-01
                    CP:  1.04D+00  8.38D-01
 E= -1178.80877050187     Delta-E=       -0.000001008679 Rises=F Damp=F
 DIIS: error= 5.69D-06 at cycle   8 NSaved=   8.
 NSaved= 8 IEnMin= 8 EnMin= -1178.80877050187     IErMin= 8 ErrMin= 5.69D-06
 ErrMax= 5.69D-06  0.00D+00 EMaxC= 1.00D-01 BMatC= 1.70D-07 BMatP= 1.13D-06
 IDIUse=1 WtCom= 1.00D+00 WtEn= 0.00D+00
 Coeff-Com:  0.487D-03-0.111D-02-0.590D-02-0.119D-01-0.192D-01 0.754D-01
 Coeff-Com:  0.388D+00 0.574D+00
 Coeff:      0.487D-03-0.111D-02-0.590D-02-0.119D-01-0.192D-01 0.754D-01
 Coeff:      0.388D+00 0.574D+00
 Gap=     0.293 Goal=   None    Shift=    0.000
 RMSDP=6.20D-07 MaxDP=7.59D-05 DE=-1.01D-06 OVMax= 7.92D-05

 Cycle  10  Pass 1  IDiag  1:
 RMSU=  4.25D-07    CP:  9.44D-01  1.06D+00  9.45D-01  7.24D-01  8.41D-01
                    CP:  1.05D+00  9.00D-01  8.89D-01
 E= -1178.80877063781     Delta-E=       -0.000000135943 Rises=F Damp=F
 DIIS: error= 1.76D-06 at cycle   9 NSaved=   9.
 NSaved= 9 IEnMin= 9 EnMin= -1178.80877063781     IErMin= 9 ErrMin= 1.76D-06
 ErrMax= 1.76D-06  0.00D+00 EMaxC= 1.00D-01 BMatC= 1.14D-08 BMatP= 1.70D-07
 IDIUse=1 WtCom= 1.00D+00 WtEn= 0.00D+00
 Coeff-Com:  0.683D-04-0.139D-03-0.111D-02-0.287D-02-0.753D-02-0.305D-03
 Coeff-Com:  0.493D-01 0.224D+00 0.739D+00
 Coeff:      0.683D-04-0.139D-03-0.111D-02-0.287D-02-0.753D-02-0.305D-03
 Coeff:      0.493D-01 0.224D+00 0.739D+00
 Gap=     0.293 Goal=   None    Shift=    0.000
 RMSDP=2.11D-07 MaxDP=2.11D-05 DE=-1.36D-07 OVMax= 2.56D-05

 Cycle  11  Pass 1  IDiag  1:
 RMSU=  1.78D-07    CP:  9.44D-01  1.06D+00  9.45D-01  7.24D-01  8.42D-01
                    CP:  1.05D+00  8.98D-01  9.40D-01  9.30D-01
 E= -1178.80877064757     Delta-E=       -0.000000009752 Rises=F Damp=F
 DIIS: error= 6.18D-07 at cycle  10 NSaved=  10.
 NSaved=10 IEnMin=10 EnMin= -1178.80877064757     IErMin=10 ErrMin= 6.18D-07
 ErrMax= 6.18D-07  0.00D+00 EMaxC= 1.00D-01 BMatC= 9.42D-10 BMatP= 1.14D-08
 IDIUse=1 WtCom= 1.00D+00 WtEn= 0.00D+00
 Coeff-Com: -0.114D-04 0.296D-04 0.284D-04-0.159D-03-0.116D-02-0.530D-02
 Coeff-Com: -0.123D-01 0.403D-01 0.274D+00 0.705D+00
 Coeff:     -0.114D-04 0.296D-04 0.284D-04-0.159D-03-0.116D-02-0.530D-02
 Coeff:     -0.123D-01 0.403D-01 0.274D+00 0.705D+00
 Gap=     0.293 Goal=   None    Shift=    0.000
 RMSDP=6.51D-08 MaxDP=1.10D-05 DE=-9.75D-09 OVMax= 1.04D-05

 Cycle  12  Pass 1  IDiag  1:
 RMSU=  4.98D-08    CP:  9.44D-01  1.06D+00  9.45D-01  7.24D-01  8.42D-01
                    CP:  1.05D+00  8.95D-01  9.57D-01  9.94D-01  9.73D-01
 E= -1178.80877064854     Delta-E=       -0.000000000975 Rises=F Damp=F
 DIIS: error= 3.70D-07 at cycle  11 NSaved=  11.
 NSaved=11 IEnMin=11 EnMin= -1178.80877064854     IErMin=11 ErrMin= 3.70D-07
 ErrMax= 3.70D-07  0.00D+00 EMaxC= 1.00D-01 BMatC= 1.57D-10 BMatP= 9.42D-10
 IDIUse=1 WtCom= 1.00D+00 WtEn= 0.00D+00
 Coeff-Com: -0.127D-04 0.294D-04 0.144D-03 0.269D-03 0.425D-03-0.196D-02
 Coeff-Com: -0.110D-01-0.105D-01 0.149D-01 0.297D+00 0.710D+00
 Coeff:     -0.127D-04 0.294D-04 0.144D-03 0.269D-03 0.425D-03-0.196D-02
 Coeff:     -0.110D-01-0.105D-01 0.149D-01 0.297D+00 0.710D+00
 Gap=     0.293 Goal=   None    Shift=    0.000
 RMSDP=2.49D-08 MaxDP=3.46D-06 DE=-9.75D-10 OVMax= 4.66D-06

 Cycle  13  Pass 1  IDiag  1:
 RMSU=  1.75D-08    CP:  9.44D-01  1.06D+00  9.45D-01  7.24D-01  8.42D-01
                    CP:  1.04D+00  8.95D-01  9.62D-01  1.00D+00  1.05D+00
                    CP:  9.65D-01
 E= -1178.80877064872     Delta-E=       -0.000000000175 Rises=F Damp=F
 DIIS: error= 1.27D-07 at cycle  12 NSaved=  12.
 NSaved=12 IEnMin=12 EnMin= -1178.80877064872     IErMin=12 ErrMin= 1.27D-07
 ErrMax= 1.27D-07  0.00D+00 EMaxC= 1.00D-01 BMatC= 2.20D-11 BMatP= 1.57D-10
 IDIUse=1 WtCom= 1.00D+00 WtEn= 0.00D+00
 Coeff-Com: -0.345D-05 0.789D-05 0.550D-04 0.125D-03 0.303D-03-0.178D-03
 Coeff-Com: -0.326D-02-0.909D-02-0.283D-01 0.434D-01 0.314D+00 0.683D+00
 Coeff:     -0.345D-05 0.789D-05 0.550D-04 0.125D-03 0.303D-03-0.178D-03
 Coeff:     -0.326D-02-0.909D-02-0.283D-01 0.434D-01 0.314D+00 0.683D+00
 Gap=     0.293 Goal=   None    Shift=    0.000
 RMSDP=8.64D-09 MaxDP=7.88D-07 DE=-1.75D-10 OVMax= 2.04D-06

 SCF Done:  E(RM062X) =  -1178.80877065     A.U. after   13 cycles
            NFock= 13  Conv=0.86D-08     -V/T= 2.0060
 KE= 1.171747030948D+03 PE=-8.454165276463D+03 EE= 3.245945557741D+03
 Leave Link  502 at Wed Jan  8 11:13:19 2025, MaxMem=  4026531840 cpu:           37786.9 elap:            1894.1
 (Enter /usr/local/intel/g16/l601.exe)
 Copying SCF densities to generalized density rwf, IOpCl= 0 IROHF=0.

 **********************************************************************

            Population analysis using the SCF Density.

 **********************************************************************

 Orbital symmetries:
       Occupied  (A) (A) (A) (A) (A) (A) (A) (A) (A) (A) (A) (A)
                 (A) (A) (A) (A) (A) (A) (A) (A) (A) (A) (A) (A)
                 (A) (A) (A) (A) (A) (A) (A) (A) (A) (A) (A) (A)
                 (A) (A) (A) (A) (A) (A) (A) (A) (A) (A) (A) (A)
                 (A) (A) (A) (A) (A) (A) (A) (A) (A) (A) (A) (A)
                 (A) (A) (A) (A) (A) (A) (A) (A) (A) (A) (A) (A)
                 (A) (A) (A) (A) (A) (A) (A) (A) (A) (A) (A) (A)
                 (A) (A) (A) (A) (A) (A) (A) (A) (A) (A) (A) (A)
                 (A) (A) (A) (A) (A) (A) (A) (A)
       Virtual   (A) (A) (A) (A) (A) (A) (A) (A) (A) (A) (A) (A)
                 (A) (A) (A) (A) (A) (A) (A) (A) (A) (A) (A) (A)
                 (A) (A) (A) (A) (A) (A) (A) (A) (A) (A) (A) (A)
                 (A) (A) (A) (A) (A) (A) (A) (A) (A) (A) (A) (A)
                 (A) (A) (A) (A) (A) (A) (A) (A) (A) (A) (A) (A)
                 (A) (A) (A) (A) (A) (A) (A) (A) (A) (A) (A) (A)
                 (A) (A) (A) (A) (A) (A) (A) (A) (A) (A) (A) (A)
                 (A) (A) (A) (A) (A) (A) (A) (A) (A) (A) (A) (A)
                 (A) (A) (A) (A) (A) (A) (A) (A) (A) (A) (A) (A)
                 (A) (A) (A) (A) (A) (A) (A) (A) (A) (A) (A) (A)
                 (A) (A) (A) (A) (A) (A) (A) (A) (A) (A) (A) (A)
                 (A) (A) (A) (A) (A) (A) (A) (A) (A) (A) (A) (A)
                 (A) (A) (A) (A) (A) (A) (A) (A) (A) (A) (A) (A)
                 (A) (A) (A) (A) (A) (A) (A) (A) (A) (A) (A) (A)
                 (A) (A) (A) (A) (A) (A) (A) (A) (A) (A) (A) (A)
                 (A) (A) (A) (A) (A) (A) (A) (A) (A) (A) (A) (A)
                 (A) (A) (A) (A) (A) (A) (A) (A) (A) (A) (A) (A)
                 (A) (A) (A) (A) (A) (A) (A) (A) (A) (A) (A) (A)
                 (A) (A) (A) (A) (A) (A) (A) (A) (A) (A) (A) (A)
                 (A) (A) (A) (A) (A) (A) (A) (A) (A) (A) (A) (A)
                 (A) (A) (A) (A) (A) (A) (A) (A) (A) (A) (A) (A)
                 (A) (A) (A) (A) (A) (A) (A) (A) (A) (A) (A) (A)
                 (A) (A) (A) (A) (A) (A) (A) (A) (A) (A) (A) (A)
                 (A) (A) (A) (A) (A) (A) (A) (A) (A) (A) (A) (A)
                 (A) (A) (A) (A) (A) (A) (A) (A) (A) (A) (A) (A)
                 (A) (A) (A) (A) (A) (A) (A) (A) (A) (A) (A) (A)
                 (A) (A) (A) (A) (A) (A) (A) (A) (A) (A) (A) (A)
                 (A) (A) (A) (A) (A) (A) (A) (A) (A) (A) (A) (A)
                 (A) (A) (A) (A) (A) (A) (A) (A) (A) (A) (A) (A)
                 (A) (A) (A) (A) (A) (A) (A) (A) (A) (A) (A) (A)
                 (A) (A) (A) (A) (A) (A) (A) (A) (A) (A) (A) (A)
                 (A) (A) (A) (A) (A) (A) (A) (A) (A) (A) (A) (A)
                 (A) (A) (A) (A) (A) (A) (A) (A) (A) (A) (A) (A)
                 (A) (A) (A) (A) (A) (A) (A) (A) (A) (A) (A) (A)
                 (A) (A) (A) (A) (A) (A) (A) (A) (A) (A) (A) (A)
                 (A) (A) (A) (A) (A) (A) (A) (A) (A) (A) (A) (A)
                 (A) (A) (A) (A) (A) (A) (A) (A) (A) (A) (A) (A)
                 (A) (A) (A) (A) (A) (A) (A) (A) (A) (A) (A) (A)
                 (A) (A) (A) (A) (A) (A) (A) (A) (A) (A) (A) (A)
                 (A) (A) (A) (A) (A) (A) (A) (A) (A) (A) (A) (A)
                 (A) (A) (A) (A) (A) (A) (A) (A) (A) (A) (A) (A)
                 (A) (A) (A) (A) (A) (A) (A) (A) (A) (A) (A) (A)
                 (A) (A) (A) (A) (A) (A) (A) (A) (A) (A) (A) (A)
                 (A) (A) (A) (A) (A) (A) (A) (A) (A) (A) (A) (A)
                 (A) (A) (A) (A) (A) (A) (A) (A) (A) (A) (A) (A)
                 (A) (A) (A) (A) (A) (A) (A) (A) (A) (A) (A) (A)
                 (A) (A) (A) (A) (A) (A) (A) (A) (A) (A) (A) (A)
                 (A) (A) (A) (A) (A) (A) (A) (A) (A) (A) (A) (A)
                 (A) (A) (A) (A) (A) (A) (A) (A) (A) (A) (A) (A)
                 (A) (A) (A) (A) (A) (A) (A) (A) (A) (A) (A) (A)
                 (A) (A) (A) (A) (A) (A) (A) (A) (A) (A) (A) (A)
                 (A) (A) (A) (A) (A) (A) (A) (A) (A) (A) (A) (A)
                 (A) (A) (A) (A) (A) (A) (A) (A) (A) (A) (A) (A)
                 (A) (A) (A) (A) (A) (A) (A) (A) (A) (A) (A) (A)
                 (A) (A) (A) (A) (A) (A) (A) (A) (A) (A) (A) (A)
                 (A) (A) (A) (A) (A) (A) (A) (A) (A) (A) (A) (A)
                 (A) (A) (A) (A) (A) (A) (A) (A) (A) (A) (A) (A)
                 (A) (A) (A) (A) (A) (A) (A) (A) (A) (A) (A) (A)
                 (A) (A) (A) (A) (A) (A) (A) (A) (A) (A) (A) (A)
                 (A) (A) (A) (A) (A) (A) (A) (A) (A) (A) (A) (A)
                 (A) (A) (A) (A) (A) (A) (A) (A) (A) (A) (A) (A)
                 (A) (A) (A) (A) (A) (A) (A) (A) (A) (A) (A) (A)
                 (A) (A) (A) (A) (A) (A) (A) (A) (A) (A) (A) (A)
                 (A) (A) (A) (A) (A) (A) (A) (A) (A) (A) (A) (A)
                 (A) (A) (A) (A) (A) (A) (A) (A) (A) (A) (A) (A)
                 (A) (A) (A) (A) (A) (A) (A) (A) (A) (A) (A) (A)
                 (A) (A) (A) (A) (A) (A) (A) (A) (A) (A) (A) (A)
                 (A) (A) (A) (A) (A) (A) (A) (A) (A) (A) (A) (A)
                 (A) (A) (A) (A) (A) (A) (A) (A) (A) (A) (A) (A)
                 (A) (A) (A) (A) (A) (A) (A) (A) (A) (A) (A) (A)
                 (A) (A) (A) (A) (A) (A) (A) (A) (A) (A) (A) (A)
                 (A) (A) (A) (A) (A) (A) (A) (A) (A) (A) (A) (A)
                 (A) (A) (A) (A) (A) (A) (A) (A) (A) (A) (A) (A)
                 (A) (A) (A) (A) (A) (A) (A) (A) (A) (A) (A) (A)
                 (A) (A) (A) (A) (A) (A) (A) (A) (A) (A) (A) (A)
                 (A) (A) (A) (A) (A) (A) (A) (A) (A) (A) (A) (A)
                 (A) (A) (A) (A) (A) (A) (A) (A) (A) (A) (A) (A)
                 (A) (A) (A) (A) (A) (A) (A) (A) (A) (A) (A) (A)
                 (A) (A) (A) (A) (A) (A) (A) (A) (A) (A) (A) (A)
                 (A) (A) (A) (A) (A) (A) (A) (A) (A) (A) (A) (A)
                 (A) (A) (A) (A) (A) (A) (A) (A) (A) (A) (A) (A)
                 (A) (A)
 The electronic state is 1-A.
 Alpha  occ. eigenvalues --  -19.64777 -19.61914 -14.78339 -10.59088 -10.58542
 Alpha  occ. eigenvalues --  -10.57773 -10.57339 -10.55225 -10.54773 -10.54740
 Alpha  occ. eigenvalues --  -10.54740 -10.54676 -10.54510 -10.54508 -10.54477
 Alpha  occ. eigenvalues --  -10.54421 -10.54359 -10.54340 -10.54330 -10.54164
 Alpha  occ. eigenvalues --  -10.53922 -10.53184 -10.52868 -10.52540 -10.51932
 Alpha  occ. eigenvalues --  -10.51728 -10.51510 -10.50899  -1.16362  -1.12690
 Alpha  occ. eigenvalues --   -0.98503  -0.96213  -0.95520  -0.90970  -0.90192
 Alpha  occ. eigenvalues --   -0.87498  -0.84991  -0.84127  -0.83947  -0.82647
 Alpha  occ. eigenvalues --   -0.81565  -0.79266  -0.77682  -0.76728  -0.76253
 Alpha  occ. eigenvalues --   -0.72760  -0.70486  -0.69017  -0.68310  -0.68152
 Alpha  occ. eigenvalues --   -0.65815  -0.65267  -0.63815  -0.60653  -0.58904
 Alpha  occ. eigenvalues --   -0.58697  -0.57834  -0.56398  -0.54950  -0.54122
 Alpha  occ. eigenvalues --   -0.53535  -0.52766  -0.52524  -0.51403  -0.51208
 Alpha  occ. eigenvalues --   -0.50678  -0.50117  -0.49207  -0.49012  -0.48570
 Alpha  occ. eigenvalues --   -0.48507  -0.47978  -0.47870  -0.47415  -0.46335
 Alpha  occ. eigenvalues --   -0.45843  -0.44996  -0.44512  -0.44161  -0.43861
 Alpha  occ. eigenvalues --   -0.43533  -0.43304  -0.42794  -0.42546  -0.41817
 Alpha  occ. eigenvalues --   -0.41503  -0.41405  -0.40934  -0.40292  -0.39883
 Alpha  occ. eigenvalues --   -0.39451  -0.39237  -0.38236  -0.38164  -0.37850
 Alpha  occ. eigenvalues --   -0.37034  -0.36081  -0.33782  -0.33646  -0.30807
 Alpha  occ. eigenvalues --   -0.30621  -0.30116  -0.29779  -0.28025
 Alpha virt. eigenvalues --    0.01301   0.01495   0.01754   0.02034   0.05674
 Alpha virt. eigenvalues --    0.06216   0.07388   0.07804   0.07894   0.08701
 Alpha virt. eigenvalues --    0.09226   0.09400   0.09693   0.10440   0.10830
 Alpha virt. eigenvalues --    0.11335   0.11505   0.12069   0.12517   0.12943
 Alpha virt. eigenvalues --    0.13317   0.13642   0.14127   0.14241   0.14776
 Alpha virt. eigenvalues --    0.14903   0.15174   0.15379   0.15717   0.16097
 Alpha virt. eigenvalues --    0.16320   0.16764   0.17198   0.17486   0.17739
 Alpha virt. eigenvalues --    0.18214   0.18378   0.18891   0.19069   0.19356
 Alpha virt. eigenvalues --    0.19704   0.20235   0.20406   0.20787   0.21143
 Alpha virt. eigenvalues --    0.21264   0.21697   0.21878   0.22559   0.22891
 Alpha virt. eigenvalues --    0.23236   0.23417   0.23483   0.23903   0.24327
 Alpha virt. eigenvalues --    0.24705   0.25093   0.25506   0.25884   0.26062
 Alpha virt. eigenvalues --    0.26568   0.27153   0.27448   0.27665   0.28264
 Alpha virt. eigenvalues --    0.28410   0.28674   0.29209   0.29368   0.29661
 Alpha virt. eigenvalues --    0.29831   0.30564   0.30668   0.31093   0.31642
 Alpha virt. eigenvalues --    0.31974   0.32208   0.32535   0.33109   0.33206
 Alpha virt. eigenvalues --    0.33905   0.34486   0.34611   0.34914   0.35079
 Alpha virt. eigenvalues --    0.35556   0.35936   0.36026   0.36610   0.36763
 Alpha virt. eigenvalues --    0.37629   0.37857   0.38151   0.38325   0.38905
 Alpha virt. eigenvalues --    0.39086   0.39758   0.40038   0.40335   0.40362
 Alpha virt. eigenvalues --    0.40939   0.41098   0.41247   0.41526   0.41815
 Alpha virt. eigenvalues --    0.42224   0.42406   0.43098   0.43368   0.43582
 Alpha virt. eigenvalues --    0.43893   0.44250   0.44336   0.44716   0.45043
 Alpha virt. eigenvalues --    0.45224   0.45612   0.45697   0.45908   0.46153
 Alpha virt. eigenvalues --    0.46441   0.46947   0.47030   0.47800   0.47915
 Alpha virt. eigenvalues --    0.48185   0.48415   0.48505   0.48860   0.49208
 Alpha virt. eigenvalues --    0.49477   0.49632   0.49846   0.50067   0.50351
 Alpha virt. eigenvalues --    0.50674   0.50803   0.51285   0.51620   0.51929
 Alpha virt. eigenvalues --    0.52139   0.52321   0.52779   0.53086   0.53292
 Alpha virt. eigenvalues --    0.53621   0.53873   0.54357   0.54509   0.54943
 Alpha virt. eigenvalues --    0.55127   0.55648   0.55961   0.56202   0.56649
 Alpha virt. eigenvalues --    0.56899   0.57207   0.57474   0.57856   0.58510
 Alpha virt. eigenvalues --    0.58943   0.59294   0.59398   0.60202   0.60459
 Alpha virt. eigenvalues --    0.61028   0.61414   0.61713   0.62417   0.63053
 Alpha virt. eigenvalues --    0.63356   0.63471   0.63777   0.64614   0.64793
 Alpha virt. eigenvalues --    0.65877   0.66200   0.66667   0.67129   0.67730
 Alpha virt. eigenvalues --    0.68458   0.68600   0.69466   0.70241   0.70622
 Alpha virt. eigenvalues --    0.70738   0.71292   0.71991   0.72540   0.72706
 Alpha virt. eigenvalues --    0.73044   0.73242   0.74311   0.74673   0.75212
 Alpha virt. eigenvalues --    0.75448   0.75660   0.76563   0.77618   0.77636
 Alpha virt. eigenvalues --    0.78550   0.79064   0.79539   0.79908   0.80057
 Alpha virt. eigenvalues --    0.80367   0.81034   0.81386   0.82216   0.82963
 Alpha virt. eigenvalues --    0.83511   0.83982   0.84353   0.84872   0.85422
 Alpha virt. eigenvalues --    0.86157   0.86784   0.87100   0.87822   0.88401
 Alpha virt. eigenvalues --    0.88594   0.89202   0.89396   0.90565   0.91274
 Alpha virt. eigenvalues --    0.91502   0.91904   0.92025   0.92790   0.93054
 Alpha virt. eigenvalues --    0.93340   0.94009   0.94472   0.94899   0.95655
 Alpha virt. eigenvalues --    0.96233   0.96558   0.97144   0.97252   0.97696
 Alpha virt. eigenvalues --    0.98248   0.98421   0.99119   1.00031   1.00804
 Alpha virt. eigenvalues --    1.01079   1.02292   1.02418   1.03285   1.03517
 Alpha virt. eigenvalues --    1.03992   1.04600   1.05895   1.06182   1.06546
 Alpha virt. eigenvalues --    1.06752   1.07717   1.08476   1.08912   1.09096
 Alpha virt. eigenvalues --    1.09639   1.09832   1.10512   1.11090   1.11727
 Alpha virt. eigenvalues --    1.12187   1.12451   1.13437   1.14436   1.14890
 Alpha virt. eigenvalues --    1.15455   1.15913   1.16453   1.16737   1.17348
 Alpha virt. eigenvalues --    1.17553   1.18425   1.19004   1.19493   1.20143
 Alpha virt. eigenvalues --    1.20444   1.21868   1.22083   1.22267   1.23070
 Alpha virt. eigenvalues --    1.23641   1.23901   1.24193   1.24995   1.25153
 Alpha virt. eigenvalues --    1.25839   1.26209   1.26964   1.27210   1.27596
 Alpha virt. eigenvalues --    1.28429   1.28822   1.29228   1.29476   1.30012
 Alpha virt. eigenvalues --    1.30768   1.31205   1.31396   1.31574   1.32772
 Alpha virt. eigenvalues --    1.33411   1.34041   1.34139   1.35489   1.35638
 Alpha virt. eigenvalues --    1.36052   1.36324   1.36805   1.37717   1.38220
 Alpha virt. eigenvalues --    1.38827   1.39011   1.40806   1.41305   1.41445
 Alpha virt. eigenvalues --    1.41789   1.43072   1.43751   1.44518   1.44854
 Alpha virt. eigenvalues --    1.45224   1.45770   1.46253   1.46410   1.47036
 Alpha virt. eigenvalues --    1.47886   1.48471   1.49308   1.49625   1.50863
 Alpha virt. eigenvalues --    1.51119   1.51331   1.52036   1.52903   1.54275
 Alpha virt. eigenvalues --    1.55067   1.55947   1.56407   1.56613   1.57600
 Alpha virt. eigenvalues --    1.58034   1.58854   1.59104   1.59640   1.59824
 Alpha virt. eigenvalues --    1.60060   1.60744   1.61147   1.61866   1.62496
 Alpha virt. eigenvalues --    1.62647   1.63288   1.63760   1.64483   1.64852
 Alpha virt. eigenvalues --    1.65083   1.65713   1.66000   1.66620   1.66851
 Alpha virt. eigenvalues --    1.67174   1.67377   1.67839   1.68339   1.69078
 Alpha virt. eigenvalues --    1.69512   1.69837   1.70241   1.70843   1.71362
 Alpha virt. eigenvalues --    1.71595   1.72015   1.72778   1.73019   1.73407
 Alpha virt. eigenvalues --    1.73636   1.73791   1.74292   1.74553   1.75060
 Alpha virt. eigenvalues --    1.75181   1.75533   1.76261   1.76403   1.76832
 Alpha virt. eigenvalues --    1.77251   1.77600   1.78353   1.78932   1.79607
 Alpha virt. eigenvalues --    1.80281   1.80958   1.81424   1.82544   1.83061
 Alpha virt. eigenvalues --    1.83916   1.84786   1.85355   1.86475   1.86616
 Alpha virt. eigenvalues --    1.87839   1.88482   1.89243   1.89570   1.90051
 Alpha virt. eigenvalues --    1.90199   1.90989   1.91674   1.92572   1.93296
[...]
 2,0.00000660,0.00000831,0.00000130,0.00000041,0.00000315,-0.00000093,0
 .00000389,0.00000886,0.00000317,0.00000031,0.00000054,0.00000195,0.000
 00897,0.00000277,-0.00000448,-0.00000696,0.00001146,0.00001256,-0.0000
 0467,-0.00002472,-0.00000790,0.00000582,-0.00001179,0.00001113,-0.0000
 1920,-0.00001211,-0.00022920,-0.00013338,-0.00003411,-0.00002787,-0.00
 000860,-0.00002471,-0.00004943,-0.00010650,0.00010199,0.00001880,-0.00
 003480,0.00001412,0.00000164,0.00000233,-0.00000483,-0.00000260,-0.000
 00002,0.00000243,-0.00000331,0.00000078,0.00000133,-0.00000321,0.00000
 252,-0.00000086,0.00000053,-0.00000578,-0.00000148,-0.00000879,-0.0000
 0511,0.00000231,-0.00000164,0.00000057,-0.00000259,0.00000513,0.000010
 60,0.00000407,0.00007240,0.00000900,-0.00001688,-0.00001983,-0.0000110
 1,0.00002301,0.00004851,0.00006281,-0.00005126,-0.00019254,0.00114704,
 0.00085170,-0.00132702,0.00004020,0.00032103,-0.00000567,-0.00009660,-
 0.00009528,-0.00013255,0.00002016,0.00013181,-0.00182166,0.00060386,-0
 .00051133,0.00373048,-0.00581732,-0.00066745,-0.02134457,-0.01629330,-
 0.01649524,0.00007125,0.00002270,0.00003339,-0.00003893,0.00005806,0.0
 0001587,-0.00066189,0.00131443,-0.00118321,-0.09048180,-0.11770912,-0.
 07866241,0.00008965,-0.00001004,-0.00005652,0.00000624,0.00001325,-0.0
 0001265,0.00002969,-0.00009387,0.00009806,0.00008934,-0.00097718,-0.00
 046540,0.00011415,0.00009253,0.00018322,0.00013443,0.00012093,-0.00011
 354,0.00004125,0.00000244,-0.00002549,-0.00000874,-0.00000774,0.000002
 74,-0.00000485,0.00000785,0.00001004,-0.00001510,-0.00001677,-0.000031
 26,0.00006815,-0.00001401,0.00002015,-0.00000733,0.00000533,0.00002101
 ,-0.00017605,-0.00003836,0.00021624,0.00056261,-0.00033365,0.00051223,
 0.00016906,0.00044978,0.00001787,0.01001077,0.00761157,0.00787912,0.10
 145948,0.13160534,0.00037105,0.00007106,0.00001637,0.00010533,0.000013
 08,-0.00006849,-0.00052483,0.00013489,-0.00004777,0.00029612,0.0002689
 3,0.00021128,0.00009270,-0.00032898,-0.00025219,-0.00037052,0.00005193
 ,-0.00036321,0.00073505,-0.00028778,-0.00018421,0.00000347,-0.00005956
 ,0.00001789,0.00000292,-0.00000504,-0.00004698,-0.00001353,-0.00001147
 ,0.00001191,0.00000085,-0.00000058,-0.00001306,-0.00000126,0.00001154,
 0.00000491,0.00000224,0.00001167,0.00000483,-0.00000336,-0.00000160,0.
 00002361,-0.00002014,0.00004078,0.00000293,-0.00000921,-0.00003390,0.0
 0006271,0.00001641,-0.00002087,0.00003553,0.00003158,-0.00000392,-0.00
 000310,0.00016476,0.00010448,0.00012139,-0.00002914,0.00001565,0.00007
 084,-0.00005532,0.00003723,0.00001514,-0.00000126,0.00001882,-0.000002
 10,0.00001455,0.00001193,-0.00000608,0.00000152,-0.00000140,0.00000079
 ,-0.00000287,0.00000286,0.00000141,-0.00000535,0.00000630,0.00000124,-
 0.00000276,-0.00000161,-0.00000728,0.00000603,-0.00000333,-0.00000330,
 -0.00001968,0.00000116,-0.00001176,0.00000427,-0.00000693,0.00000667,0
 .00005538,0.00012997,0.00001446,0.00002149,-0.00000805,-0.00000819,0.0
 0008480,-0.00000922,0.00000359,-0.00016571,0.00104853,0.00061109,-0.00
 068238,-0.00078454,-0.00033443,0.00010773,-0.00000744,-0.00000267,-0.0
 0009486,0.00009013,0.00002058,-0.00045814,0.00006961,0.00070485,0.0009
 5202,-0.00071589,-0.00011741,-0.00280747,-0.00134754,-0.00400212,0.000
 01434,-0.00002392,0.00001916,-0.00000521,-0.00001148,-0.00000713,0.000
 41426,0.00093353,0.00043555,-0.09998835,-0.07886237,-0.13335772,0.0000
 3749,-0.00000583,-0.00000296,-0.00000923,0.00001623,0.00000904,0.00007
 884,-0.00018487,-0.00006108,0.00000749,-0.00018900,-0.00012634,-0.0003
 2316,-0.00005122,0.00012192,0.00034200,-0.00000051,0.00043557,0.000042
 25,-0.00000969,-0.00000706,-0.00001753,-0.00000794,-0.00002086,0.00001
 423,0.00002021,-0.00000685,0.00000852,0.00003949,-0.00001196,0.0000114
 1,-0.00002349,0.00003123,0.00001245,-0.00000420,-0.00000773,0.00028825
 ,-0.00021607,0.00002432,-0.00010297,-0.00000772,0.00048298,0.00017688,
 -0.00005444,-0.00005491,-0.01799250,-0.01518546,-0.01402464,0.10907130
 ,0.08607918,0.14028736,0.00017755,-0.00016793,-0.00001086,0.00007742,0
 .00006503,0.00015872,-0.00020973,0.00010301,-0.00010253,-0.00006568,-0
 .00017889,0.00026315,-0.00004480,-0.00014898,0.00007374,-0.00008624,0.
 00010041,-0.00028533,0.00041372,0.00025375,-0.00033078,0.00002038,-0.0
 0003254,0.00001252,-0.00000357,-0.00000500,-0.00002974,-0.00001550,0.0
 0000010,0.00000302,-0.00000183,0.00000275,-0.00001385,-0.00000304,0.00
 000153,-0.00000126,-0.00000275,-0.00000306,-0.00000223,-0.00001533,-0.
 00000467,0.00001568,-0.00001336,0.00002348,0.00001041,0.00000466,-0.00
 001091,0.00001372,0.00000731,-0.00001322,0.00002060,-0.00000192,-0.000
 04566,-0.00000106,0.00005917,0.00008314,0.00002338,-0.00000790,0.00000
 300,-0.00000402,-0.00002231,-0.00002196,0.00005259,0.00000837,-0.00000
 146,0.00001661,0.00001228,0.00000808,-0.00000511,0.00000263,-0.0000002
 2,0.00000347,0.00000115,0.00000299,0.00000303,0.00000228,0.00000437,0.
 00000259,0.00000704,-0.00000159,0.00000258,-0.00000119,-0.00000471,-0.
 00000205,-0.00001584,0.00000312,-0.00000809,0.00000643,-0.00000603,0.0
 0000153,0.00001687,-0.00002337,0.00003257,-0.00003347,-0.00001390,-0.0
 0000583,0.00002922,0.00002026,0.00001455,-0.00021972,0.00067064,0.0007
 1545,-0.00061758,0.00214393,0.00003755,-0.00037397,-0.00089574,-0.0001
 8689,0.00004078,-0.00012913,-0.00008512,0.00016147,0.00020230,-0.00018
 276,0.00022257,-0.00170228,-0.00048887,-0.00957349,-0.00243318,0.00501
 521,0.00001485,0.00027104,0.00001644,-0.00005343,0.00005581,0.00009467
 ,-0.00023894,-0.00058912,0.00072540,-0.25517258,-0.00428854,0.11074644
 ,0.00006884,0.00004092,0.00000114,0.00000266,-0.00000734,-0.00000985,-
 0.00000746,0.00002380,0.00000020,0.00008318,0.00005636,-0.00004942,0.0
 0074381,-0.00005287,-0.00009407,-0.00007363,0.00025245,0.00001811,0.00
 002200,-0.00000982,-0.00000905,0.00000870,-0.00001249,-0.00001769,-0.0
 0005347,0.00002701,0.00007125,0.00003253,0.00006539,-0.00003029,0.0000
 0197,-0.00004024,0.00001746,-0.00002184,0.00006991,-0.00005757,0.00045
 642,0.00025563,-0.00081434,0.00009219,-0.00004469,0.00011468,0.0004358
 4,-0.00003658,-0.00033406,0.00455608,-0.00034764,-0.00220140,-0.017162
 05,0.00047435,0.01013747,0.27634667,0.00004920,-0.00000480,-0.00005007
 ,0.00011589,0.00014031,0.00010335,-0.00020086,0.00016249,-0.00013838,-
 0.00022786,-0.00015724,0.00033489,-0.00025944,-0.00047917,0.00050875,-
 0.00041697,-0.00016356,-0.00032080,0.00025258,-0.00036057,0.00008833,0
 .00000200,-0.00002021,0.00000344,0.00000191,-0.00000670,-0.00002411,-0
 .00000318,-0.00000784,0.00001052,0.00000147,-0.00000294,-0.00000115,-0
 .00000048,0.00000927,0.00000612,0.00000289,0.00001136,0.00000465,0.000
 00465,0.00000503,0.00000817,-0.00000802,0.00001649,-0.00000218,0.00000
 821,-0.00000979,0.00001237,0.00000424,-0.00002476,0.00002824,-0.000015
 83,-0.00005814,-0.00000412,0.00006366,0.00006016,0.00000422,0.00001758
 ,0.00001662,0.00003115,-0.00000150,0.00001322,-0.00000780,-0.00000298,
 0.00000586,-0.00001159,0.00000647,0.00000444,-0.00000253,0.00000009,-0
 .00000079,-0.00000025,-0.00000274,0.00000105,0.00000005,-0.00000476,0.
 00000287,-0.00000039,-0.00000481,-0.00000150,-0.00000598,0.00000285,-0
 .00000107,0.00000109,-0.00000733,0.00000016,-0.00000517,0.00000344,0.0
 0000174,0.00000610,0.00000598,0.00006504,-0.00005396,0.00002323,0.0000
 1661,0.00001354,0.00002200,0.00001019,0.00002579,-0.00049406,0.0005159
 5,0.00019250,0.00201800,-0.00678241,-0.00241486,0.00141267,0.00071557,
 -0.00031398,0.00020854,0.00024128,0.00013063,0.00008634,0.00005183,0.0
 0014400,0.00125730,0.00094291,-0.00039798,0.02587297,0.00048627,-0.013
 95587,0.00003361,-0.00052994,-0.00008602,-0.00000018,-0.00005495,-0.00
 016958,0.00024393,0.00050226,-0.00083092,-0.00825421,-0.04589820,0.005
 55303,-0.00008460,-0.00002513,0.00002456,-0.00000999,-0.00000131,-0.00
 001034,-0.00000435,0.00002618,-0.00000642,-0.00010207,0.00007549,0.000
 08354,-0.00041827,-0.00065436,-0.00005302,-0.00019974,0.00012246,-0.00
 001270,0.00000458,-0.00000313,0.00000625,-0.00002595,0.00002307,-0.000
 01273,0.00014265,0.00002380,-0.00014792,0.00000268,-0.00005345,0.00004
 319,0.00000283,0.00001929,0.00002217,0.00002928,-0.00007251,0.00007043
 ,0.00021135,-0.00035894,0.00070813,-0.00002137,-0.00003671,-0.00001437
 ,-0.00031464,0.00015423,-0.00003581,-0.01333729,-0.00052263,0.00496834
 ,-0.01372260,-0.00042855,0.00924638,0.00599808,0.05225618,0.00025985,-
 0.00033027,0.00008383,-0.00004685,0.00001059,0.00022455,-0.00012654,-0
 .00000474,-0.00005197,0.00015774,-0.00026133,-0.00007345,0.00008422,0.
 00017040,-0.00016658,0.00015591,0.00025062,-0.00009571,0.00002932,0.00
 012993,-0.00016747,-0.00000344,0.00001527,0.00001007,0.00000269,-0.000
 00021,0.00000339,0.00000634,0.00000297,-0.00000095,0.00000101,-0.00000
 045,0.00000647,0.00000076,0.00000065,0.00000360,0.00000273,0.00000293,
 0.00000004,0.00000483,0.00000126,-0.00000096,0.00000551,-0.00000840,-0
 .00000029,-0.00000245,0.00000139,-0.00001963,0.00000542,0.00004410,-0.
 00001301,0.00000929,0.00002925,0.00000315,0.00004642,0.00006550,0.0000
 4514,-0.00001691,-0.00000311,0.00002035,-0.00001062,-0.00001285,0.0000
 2007,0.00000361,-0.00000608,-0.00000128,-0.00000596,-0.00000277,0.0000
 0001,-0.00000201,0.00000079,-0.00000089,-0.00000060,-0.00000135,-0.000
 00158,-0.00000246,-0.00000101,-0.00000025,-0.00000368,-0.00000046,-0.0
 0000254,-0.00000096,0.00000114,-0.00000043,0.00000422,-0.00000087,0.00
 000294,-0.00000116,0.00000171,0.00000038,0.00003443,-0.00001195,-0.000
 03307,-0.00000446,-0.00000257,0.00001279,0.00002592,0.00001847,0.00001
 357,-0.00069073,0.00064489,0.00054866,0.00050285,-0.00278786,-0.000904
 31,0.00041725,0.00033720,0.00053063,0.00004625,0.00017530,0.00005787,-
 0.00017920,-0.00003547,-0.00002410,0.00048629,0.00034625,0.00010229,0.
 00379617,0.00098855,-0.00442246,-0.00003077,-0.00010762,-0.00001079,0.
 00010269,-0.00020234,-0.00015850,-0.00088612,0.00044505,-0.00021233,0.
 11142349,0.00323140,-0.10633286,-0.00006505,-0.00002417,0.00003159,0.0
 0000370,0.00000939,0.00000276,-0.00002508,0.00007717,0.00000678,-0.000
 09308,-0.00002632,0.00001154,-0.00023461,-0.00052160,0.00019133,0.0001
 3714,0.00008168,-0.00025793,-0.00000355,-0.00000396,0.00000176,-0.0000
 0738,0.00001617,0.00001679,0.00004408,-0.00001907,-0.00002777,-0.00000
 241,-0.00002141,0.00003146,-0.00000378,0.00001214,-0.00000479,0.000045
 78,-0.00007045,0.00006239,-0.00051503,0.00082048,0.00003606,-0.0001481
 2,0.00017331,0.00004413,-0.00007906,-0.00012261,0.00003790,0.02471299,
 -0.00088780,-0.01097272,-0.01627864,0.00066094,0.00934555,-0.12309542,
 -0.00329786,0.11246314,0.00000598,0.00001262,0.00001944,-0.00000700,0.
 00000701,-0.00000272,-0.00001015,0.00000599,0.00000257,-0.00001046,0.0
 0000211,-0.00001047,0.00001917,0.00000985,0.00001245,0.00000087,-0.000
 02141,-0.00002991,-0.00003919,-0.00016499,0.00009672,-0.00001006,-0.00
 000568,-0.00000256,0.00002223,-0.00001060,-0.00001105,0.00001261,-0.00
 000653,0.00001219,0.00000540,-0.00000521,0.00001453,0.00000392,0.00001
 405,0.00001534,0.00001352,0.00002124,0.00000962,0.00002854,0.00000867,
 0.00000579,-0.00000336,-0.00000121,-0.00000548,-0.00000127,-0.00000549
 ,-0.00000173,-0.00000443,0.00000721,-0.00000011,-0.00000240,0.00000783
 ,0.00000272,0.00000666,-0.00000280,0.00000294,-0.00000496,-0.00001348,
 0.00002274,-0.00001016,-0.00001417,-0.00000729,-0.00000678,-0.00000103
 ,-0.00001649,-0.00000772,0.00000024,-0.00000186,-0.00000554,0.00000032
 ,-0.00000502,-0.00000840,-0.00000328,-0.00000437,-0.00001663,0.0000010
 4,-0.00000431,-0.00001923,-0.00000137,-0.00001719,0.00000376,0.0000033
 7,-0.00000174,0.00000390,-0.00000422,0.00000066,-0.00000301,0.00000638
 ,0.00000691,-0.00000223,0.00002427,-0.00002393,0.00001926,0.00001024,0
 .00000319,-0.00000098,0.00000133,0.00001214,0.00005937,0.00044068,0.00
 019858,0.00046111,0.00008287,0.00005330,-0.00068322,0.00010468,-0.0003
 4761,0.00181292,-0.00225865,-0.00066353,0.00510952,-0.03391422,-0.0137
 4535,-0.00447539,-0.00156624,-0.00260952,0.00114413,-0.00127698,-0.000
 48263,0.00007202,0.00006150,0.00013473,0.00004587,0.00019947,0.0000283
 2,-0.00002555,-0.00002987,0.00014010,-0.00042234,-0.00017062,-0.000165
 48,-0.00100303,0.00118304,0.00037423,-0.00006034,0.00005779,0.00018203
 ,0.00026762,0.00035816,-0.00039573,-0.07911130,0.15339158,0.04488488,0
 .00003308,0.00007355,-0.00018615,-0.00011736,-0.00002070,0.00022553,0.
 00005848,0.00003933,-0.00003453,-0.00001579,0.00000163,-0.00001557,-0.
 00009431,0.00001833,0.00004097,-0.00001270,-0.00005742,-0.00006048,0.0
 0006021,-0.00000379,0.00007327,-0.00006779,0.00000668,-0.00000703,-0.0
 0002440,0.00001671,0.00002354,-0.00000603,-0.00000518,-0.00003861,0.00
 003256,0.00002669,-0.00002200,0.00001007,-0.00001788,0.00000773,0.0000
 4493,-0.00015755,-0.00002072,-0.00002441,0.00003293,0.00000725,0.07696
 020,0.00000279,0.00001424,0.00000731,-0.00000162,0.00000233,-0.0000019
 1,-0.00000527,0.00000500,0.00000520,-0.00000552,0.00000243,-0.00000458
 ,0.00001281,0.00001416,0.00000572,0.00000828,-0.00002475,-0.00002159,-
 0.00004124,-0.00010432,0.00003883,-0.00000862,-0.00000191,-0.00000188,
 0.00001940,-0.00000748,-0.00000513,0.00001445,-0.00000936,0.00001063,0
 .00000441,-0.00000295,0.00001299,0.00000050,0.00000825,0.00001184,0.00
 000556,0.00002600,0.00000631,0.00002445,0.00000527,0.00000224,-0.00000
 119,-0.00000247,-0.00000446,-0.00000145,-0.00000976,0.00000309,-0.0000
 0402,0.00000387,-0.00000033,-0.00000180,0.00000594,0.00000298,0.000004
 04,-0.00000053,0.00000444,-0.00001137,-0.00001064,0.00001510,-0.000012
 33,-0.00001542,-0.00000421,-0.00000556,-0.00000174,-0.00001210,-0.0000
 0730,-0.00000220,-0.00000171,-0.00000561,-0.00000055,-0.00000315,-0.00
 000397,-0.00000090,-0.00000533,-0.00000697,-0.00000215,-0.00000132,-0.
 00001541,0.00000186,-0.00001119,0.00000249,0.00000269,-0.00000078,0.00
 000493,-0.00000340,0.00000155,-0.00000257,0.00000453,0.00000374,-0.000
 00702,0.00000943,-0.00001074,0.00001128,0.00000597,0.00000087,0.000000
 39,0.00000119,0.00000874,0.00001962,0.00026624,0.00017364,0.00009858,-
 0.00007582,-0.00000234,0.00008128,-0.00020987,-0.00078546,0.00083170,0
 .00165503,0.00198058,0.00751764,-0.01590363,-0.00427463,-0.00428908,-0
 .00046546,-0.00229861,0.00129587,-0.00027105,-0.00012162,0.00022435,0.
 00020975,0.00024916,0.00003147,0.00020994,0.00000956,-0.00009524,-0.00
 009602,0.00005301,-0.00030209,-0.00006708,-0.00012203,-0.00076559,-0.0
 0035506,0.00028212,-0.00027520,-0.00041342,0.00009739,0.00086692,0.001
 38093,0.00062511,0.11120241,-0.42689318,-0.16612104,0.00008813,0.00020
 099,0.00011705,-0.00010567,0.00060295,0.00000067,0.00010584,0.00003703
 ,-0.00008923,-0.00001858,-0.00002318,-0.00001287,-0.00005338,0.0000057
 2,0.00000919,-0.00006613,0.00000328,-0.00002192,0.00007652,-0.00004157
 ,0.00008630,0.00002433,0.00001088,-0.00002739,-0.00001769,0.00002492,0
 .00002487,-0.00000547,0.00004724,-0.00005953,0.00000382,0.00006713,-0.
 00007102,0.00001312,-0.00001923,0.00000503,0.00005332,-0.00009553,0.00
 000231,-0.00000890,0.00002164,0.00001006,-0.11649882,0.44027376,0.0000
 0843,-0.00000212,0.00001132,-0.00000271,0.00000283,-0.00000454,-0.0000
 0065,-0.00000125,-0.00000483,0.00000027,0.00000140,-0.00000716,0.00000
 622,-0.00000547,-0.00000399,-0.00000802,0.00001650,0.00000118,-0.00002
 300,-0.00003393,0.00001459,-0.00000962,-0.00001172,0.00001024,0.000000
 44,0.00000327,-0.00000136,-0.00000106,0.00000086,-0.00000650,-0.000003
 03,0.00000134,-0.00000483,-0.00000561,0.00000239,-0.00000064,0.0000013
 8,-0.00000026,-0.00000023,0.00000113,-0.00000779,0.00001345,0.00000186
 ,0.00000196,-0.00000296,-0.00000433,0.00000638,-0.00000298,-0.00000100
 ,0.00000024,0.00000194,-0.00000154,-0.00000217,-0.00000055,-0.00000173
 ,-0.00000403,-0.00000173,0.00000729,-0.00000261,0.00000832,0.00000601,
 0.00000420,-0.00000635,-0.00000059,0.00000235,-0.00000611,0.00000096,0
 .00000183,0.00000132,0.00000463,0.00000374,-0.00000165,0.00000672,-0.0
 0000159,-0.00000112,-0.00000335,0.00000166,0.00000492,-0.00000455,-0.0
 0000015,-0.00001055,0.00000246,0.00000270,-0.00000140,-0.00000273,0.00
 000015,0.00000080,-0.00000029,-0.00000358,-0.00000093,0.00000124,0.000
 00131,0.00000143,0.00000151,0.00000329,-0.00000263,0.00000025,-0.00000
 512,-0.00000096,-0.00002223,-0.00001540,-0.00003734,-0.00007313,0.0000
 7273,-0.00012386,0.00035117,-0.00007422,-0.00029698,-0.00023514,0.0014
 5173,0.00156656,0.00576837,-0.02172626,-0.00941172,-0.00374186,-0.0002
 0038,-0.00217431,0.00058264,-0.00107162,0.00053598,0.00004546,0.000090
 62,0.00002703,-0.00010500,-0.00009359,0.00010764,0.00017095,-0.0001237
 5,0.00018137,-0.00031583,-0.00012953,-0.00023616,-0.00017310,-0.000446
 46,0.00059320,0.00005419,0.00053923,-0.00025584,0.00077188,-0.00013000
 ,-0.00035016,0.02454480,-0.14889390,-0.06630347,-0.00008140,0.00028706
 ,0.00009394,0.00004640,0.00004889,0.00024813,0.00001018,-0.00001837,-0
 .00004224,0.00001200,0.00004356,-0.00002132,0.00003801,-0.00003250,0.0
 0000945,-0.00001591,0.00006090,-0.00015655,0.00003431,0.00005019,-0.00
 006883,0.00002319,0.00000300,-0.00000780,-0.00000186,0.00000316,-0.000
 02052,-0.00000429,0.00007701,0.00002237,-0.00005396,0.00012040,-0.0000
 4908,-0.00001324,0.00001142,0.00000461,0.00005606,-0.00011592,0.000006
 96,0.00002359,0.00000496,-0.00001440,-0.02767326,0.17023045,0.07617784
 \\-0.00000046,0.00000089,-0.00000188,0.00000045,0.00000071,-0.00000066
 ,0.00000163,0.00000150,0.00000227,-0.00000073,0.00000684,0.00000075,0.
 00000026,-0.00000726,-0.00000417,-0.00000002,0.00000422,0.00000080,0.0
 0000418,0.00000024,0.00000514,0.00000590,0.00000242,-0.00000503,-0.000
 00575,-0.00001642,0.00001790,0.00000836,0.00000180,-0.00001469,-0.0000
 0384,0.00001361,0.00000333,-0.00000118,-0.00001325,0.00000704,0.000005
 92,-0.00000288,-0.00001074,-0.00000062,0.00001115,0.00000275,-0.000002
 17,-0.00000268,0.00000151,0.00000113,0.00000098,-0.00000017,0.00000139
 ,0.00000147,-0.00000042,0.00000110,0.00000065,0.00000063,0.00000058,-0
 .00000046,0.00000037,0.00000172,-0.00000104,-0.00000011,0.00000044,0.0
 0000062,0.00000128,-0.00000141,-0.00000231,0.00000275,-0.00000113,0.00
 000034,0.00000274,0.00000042,-0.00000190,-0.00000017,0.00000042,-0.000
 00070,-0.00000016,-0.00000117,-0.00000124,0.00000098,0.00000004,-0.000
 00181,0.00000021,0.00000131,-0.00000034,0.00000020,0.00000030,-0.00000
 032,0.00000081,0.,-0.00000069,-0.00000015,-0.00000038,-0.00000443,-0.0
 0000684,0.00000077,-0.00000013,0.00000117,0.00000079,0.00000039,0.0000
 0146,-0.00000151,0.00000037,-0.00000003,0.00000079,0.00000312,-0.00000
 195,0.00000598,-0.00000184,0.00000246,-0.00000683,-0.00000360,0.000002
 51,0.00000583,0.00000404,-0.00000242,-0.00000200,-0.00000195,-0.000000
 14,0.00000275,0.00000052,0.00001089,-0.00000138,0.00000401,-0.00000212
 ,-0.00000673,0.00000624,0.00000093,-0.00000393,-0.00000215,-0.00001094
 ,0.00000423,0.00000017,0.00000185,0.00000238,0.00000141,-0.00000038,-0
 .00000235,0.00000018,-0.00000066,-0.00000358,0.00000149,0.00000349,-0.
 00000799,-0.00000510,0.00000077,0.00000044,0.00000250,-0.00000210,0.00
 000044,0.00000153,-0.00000135,-0.00000135,-0.00000228,-0.00000222,0.00
 000017,-0.00000103,0.00000087,0.00000100,-0.00000113,-0.00000050,0.000
 00035,-0.00000143,-0.00000238,-0.00000247,-0.00000423,0.00000047,0.000
 00098,-0.00000184,-0.00000133,-0.00000287,0.00000150,-0.00000098,0.000
 00062,-0.00000167,0.00000155,0.00000170,0.00000552,0.00000148,0.000000
 32,0.00000185,-0.00000034,-0.00000220,-0.00000101,-0.00000007,-0.00000
 137,0.00000329,-0.00000101,0.00000033,0.00000149,-0.00000529\\\@
 The archive entry for this job was punched.


 AS FAR AS THE LAWS OF MATHEMATICS REFER TO REALITY,
 THEY ARE NOT CERTAIN; AND AS FAR AS THEY ARE CERTAIN,
 THEY DO NOT REFER TO REALITY.

                                         -- ALBERT EINSTEIN
 Job cpu time:       8 days 12 hours 19 minutes 55.6 seconds.
 Elapsed time:       0 days 10 hours 13 minutes 11.5 seconds.
 File lengths (MBytes):  RWF=   4966 Int=      0 D2E=      0 Chk=     94 Scr=      1
 Normal termination of Gaussian 16 at Thu Jan  9 07:57:47 2025.
