 Entering Gaussian System, Link 0=g16
 Input=gjfs/data_set_12-St_dormant-32.gjf
 Output=gjfs/data_set_12-St_dormant-32.log
 Initial command:
 /usr/local/intel/g16/l1.exe "/scr/Gau-13138.inp" -scrdir="/scr/"
 Entering Link 1 = /usr/local/intel/g16/l1.exe PID=     13140.
  
 Copyright (c) 1988-2019, Gaussian, Inc.  All Rights Reserved.
  
 This is part of the Gaussian(R) 16 program.  It is based on
 the Gaussian(R) 09 system (copyright 2009, Gaussian, Inc.),
 the Gaussian(R) 03 system (copyright 2003, Gaussian, Inc.),
 the Gaussian(R) 98 system (copyright 1998, Gaussian, Inc.),
 the Gaussian(R) 94 system (copyright 1995, Gaussian, Inc.),
 the Gaussian 92(TM) system (copyright 1992, Gaussian, Inc.),
 the Gaussian 90(TM) system (copyright 1990, Gaussian, Inc.),
 the Gaussian 88(TM) system (copyright 1988, Gaussian, Inc.),
 the Gaussian 86(TM) system (copyright 1986, Carnegie Mellon
 University), and the Gaussian 82(TM) system (copyright 1983,
 Carnegie Mellon University). Gaussian is a federally registered
 trademark of Gaussian, Inc.
  
 This software contains proprietary and confidential information,
 including trade secrets, belonging to Gaussian, Inc.
  
 This software is provided under written license and may be
 used, copied, transmitted, or stored only in accord with that
 written license.
  
 The following legend is applicable only to US Government
 contracts under FAR:
  
                    RESTRICTED RIGHTS LEGEND
  
 Use, reproduction and disclosure by the US Government is
 subject to restrictions as set forth in subparagraphs (a)
 and (c) of the Commercial Computer Software - Restricted
 Rights clause in FAR 52.227-19.
  
 Gaussian, Inc.
 340 Quinnipiac St., Bldg. 40, Wallingford CT 06492
  
  
 ---------------------------------------------------------------
 Warning -- This program may not be used in any manner that
 competes with the business of Gaussian, Inc. or will provide
 assistance to any competitor of Gaussian, Inc.  The licensee
 of this program is prohibited from giving any competitor of
 Gaussian, Inc. access to this program.  By using this program,
 the user acknowledges that Gaussian, Inc. is engaged in the
 business of creating and licensing software in the field of
 computational chemistry and represents and warrants to the
 licensee that it is not a competitor of Gaussian, Inc. and that
 it will not use this program in any manner prohibited above.
 ---------------------------------------------------------------
  

 Cite this work as:
 Gaussian 16, Revision C.01,
 M. J. Frisch, G. W. Trucks, H. B. Schlegel, G. E. Scuseria, 
 M. A. Robb, J. R. Cheeseman, G. Scalmani, V. Barone, 
 G. A. Petersson, H. Nakatsuji, X. Li, M. Caricato, A. V. Marenich, 
 J. Bloino, B. G. Janesko, R. Gomperts, B. Mennucci, H. P. Hratchian, 
 J. V. Ortiz, A. F. Izmaylov, J. L. Sonnenberg, D. Williams-Young, 
 F. Ding, F. Lipparini, F. Egidi, J. Goings, B. Peng, A. Petrone, 
 T. Henderson, D. Ranasinghe, V. G. Zakrzewski, J. Gao, N. Rega, 
 G. Zheng, W. Liang, M. Hada, M. Ehara, K. Toyota, R. Fukuda, 
 J. Hasegawa, M. Ishida, T. Nakajima, Y. Honda, O. Kitao, H. Nakai, 
 T. Vreven, K. Throssell, J. A. Montgomery, Jr., J. E. Peralta, 
 F. Ogliaro, M. J. Bearpark, J. J. Heyd, E. N. Brothers, K. N. Kudin, 
 V. N. Staroverov, T. A. Keith, R. Kobayashi, J. Normand, 
 K. Raghavachari, A. P. Rendell, J. C. Burant, S. S. Iyengar, 
 J. Tomasi, M. Cossi, J. M. Millam, M. Klene, C. Adamo, R. Cammi, 
 J. W. Ochterski, R. L. Martin, K. Morokuma, O. Farkas, 
 J. B. Foresman, and D. J. Fox, Gaussian, Inc., Wallingford CT, 2019.
 
 ******************************************
 Gaussian 16:  ES64L-G16RevC.01  3-Jul-2019
                 8-Jan-2025 
 ******************************************
 %nprocshared=20
 Will use up to   20 processors via shared memory.
 %mem=30GB
 %chk=outputs/data_set_12-St_dormant-32.chk
 ----------------------------------
 #p M062X/DEF2TZVP opt freq pop=NBO
 ----------------------------------
 1/18=20,19=15,26=3,38=1/1,3;
 2/9=110,12=2,17=6,18=5,40=1/2;
 3/5=44,7=101,11=2,25=1,30=1,71=1,74=-55/1,2,3;
 4//1;
 5/5=2,38=5/2;
 6/7=2,8=2,9=2,10=2,28=1,40=1/1,7;
 7//1,2,3,16;
 1/18=20,19=15,26=3/3(2);
 2/9=110/2;
 99//99;
 2/9=110/2;
 3/5=44,7=101,11=2,25=1,30=1,71=1,74=-55/1,2,3;
 4/5=5,16=3,69=1/1;
 5/5=2,38=5/2;
 7//1,2,3,16;
 1/18=20,19=15,26=3/3(-5);
 2/9=110/2;
 6/7=2,8=2,9=2,10=2,19=2,28=1,40=1/1,7;
 99/9=1/99;
 Leave Link    1 at Wed Jan  8 16:34:01 2025, MaxMem=  4026531840 cpu:               1.0 elap:               0.1
 (Enter /usr/local/intel/g16/l101.exe)
 -------------------------
 data_set_12-St_dormant-32
 -------------------------
 Symbolic Z-matrix:
 Charge =  0 Multiplicity = 1
 C                    -2.02425   2.75919  -2.23956 
 C                    -2.82498   3.52911  -1.38292 
 C                    -2.61707   3.4665    0.00441 
 C                    -1.61783   2.63745   0.529 
 C                    -0.81488   1.85595  -0.32136 
 C                    -1.02647   1.92964  -1.7076 
 C                     0.26752   0.93979   0.2144 
 C                     2.34253   0.77317   1.76213 
 C                     3.29885   0.50889   0.60389 
 C                     3.49794   1.44326  -0.43007 
 C                     4.4081    1.18924  -1.46618 
 C                     5.14483  -0.00488  -1.48349 
 C                     4.96626  -0.93817  -0.45115 
 C                     4.05157  -0.67948   0.57883 
 C                     3.08438   1.52876   2.88941 
 H                    -2.18028   2.80022  -3.31249 
 H                    -3.60084   4.1694   -1.78958 
 H                    -3.23325   4.05934   0.67239 
 H                    -1.47185   2.59671   1.60387 
 H                    -0.41712   1.32017  -2.36776 
 H                     0.9408    0.68789  -0.60948 
 H                     2.02196  -0.1962    2.16179 
 H                     2.9385    2.37421  -0.43693 
 H                     4.54153   1.92036  -2.25716 
 H                     5.84726  -0.20327  -2.28624 
 H                     5.53231  -1.8641   -0.4508 
 H                     3.91704  -1.41051   1.37188 
 H                     2.42395   1.6882    3.74984 
 H                     3.4291    2.50709   2.53331 
 H                     3.96073   0.96565   3.22656 
 C                     1.06978   1.5516    1.36779 
 H                     1.3286    2.58352   1.09856 
 H                     0.42734   1.6124    2.25489 
 O                    -0.26733  -0.32527   0.7522 
 N                    -0.7695   -1.17338  -0.32005 
 C                    -2.06103  -1.86661   0.08417 
 O                    -1.79792  -3.28778  -0.19775 
 C                    -0.72265  -3.33369  -1.16909 
 C                     0.24227  -2.23844  -0.68702 
 C                     1.16845  -1.75348  -1.80907 
 C                     1.0478   -2.75194   0.52093 
 H                    -0.28155  -4.33029  -1.13282 
 H                    -1.09469  -3.12496  -2.18147 
 H                     1.9282   -1.06147  -1.43116 
 H                     0.5866   -1.25165  -2.58884 
 H                     1.69821  -2.60414  -2.25519 
 H                     1.80603  -3.46492   0.17684 
 H                     0.39273  -3.25033   1.24173 
 H                     1.55238  -1.92522   1.0203 
 C                    -3.22349  -1.43066  -0.82514 
 C                    -3.85911  -0.09343  -0.41447 
 C                    -4.29344  -0.11568   1.06156 
 C                    -3.10002  -0.45342   1.97423 
 C                    -2.42754  -1.77834   1.57136 
 H                    -2.86456  -1.38194  -1.85905 
 H                    -3.97806  -2.22581  -0.7666 
 H                    -4.71994   0.11047  -1.06232 
 H                    -3.14395   0.7174   -0.57078 
 H                    -5.08654  -0.86543   1.19998 
 H                    -4.71395   0.85786   1.34171 
 H                    -3.42876  -0.52407   3.0183 
 H                    -2.36188   0.35183   1.91619 
 H                    -3.11925  -2.61132   1.7503 
 H                    -1.53336  -1.95497   2.1751 
 
 ITRead=  0  0  0  0  0  0  0  0  0  0  0  0  0  0  0  0  0  0  0  0
 ITRead=  0  0  0  0  0  0  0  0  0  0  0  0  0  0  0  0  0  0  0  0
 ITRead=  0  0  0  0  0  0  0  0  0  0  0  0  0  0  0  0  0  0  0  0
 ITRead=  0  0  0  0
 MicOpt= -1 -1 -1 -1 -1 -1 -1 -1 -1 -1 -1 -1 -1 -1 -1 -1 -1 -1 -1 -1
 MicOpt= -1 -1 -1 -1 -1 -1 -1 -1 -1 -1 -1 -1 -1 -1 -1 -1 -1 -1 -1 -1
 MicOpt= -1 -1 -1 -1 -1 -1 -1 -1 -1 -1 -1 -1 -1 -1 -1 -1 -1 -1 -1 -1
 MicOpt= -1 -1 -1 -1
 NAtoms=     64 NQM=       64 NQMF=       0 NMMI=      0 NMMIF=      0
                NMic=       0 NMicF=      0.
                    Isotopes and Nuclear Properties:
 (Nuclear quadrupole moments (NQMom) in fm**2, nuclear magnetic moments (NMagM)
  in nuclear magnetons)

  Atom         1           2           3           4           5           6           7           8           9          10
 IAtWgt=          12          12          12          12          12          12          12          12          12          12
 AtmWgt=  12.0000000  12.0000000  12.0000000  12.0000000  12.0000000  12.0000000  12.0000000  12.0000000  12.0000000  12.0000000
 NucSpn=           0           0           0           0           0           0           0           0           0           0
 AtZEff=  -0.0000000  -0.0000000  -0.0000000  -0.0000000  -0.0000000  -0.0000000  -0.0000000  -0.0000000  -0.0000000  -0.0000000
 NQMom=    0.0000000   0.0000000   0.0000000   0.0000000   0.0000000   0.0000000   0.0000000   0.0000000   0.0000000   0.0000000
 NMagM=    0.0000000   0.0000000   0.0000000   0.0000000   0.0000000   0.0000000   0.0000000   0.0000000   0.0000000   0.0000000
 AtZNuc=   6.0000000   6.0000000   6.0000000   6.0000000   6.0000000   6.0000000   6.0000000   6.0000000   6.0000000   6.0000000

  Atom        11          12          13          14          15          16          17          18          19          20
 IAtWgt=          12          12          12          12          12           1           1           1           1           1
 AtmWgt=  12.0000000  12.0000000  12.0000000  12.0000000  12.0000000   1.0078250   1.0078250   1.0078250   1.0078250   1.0078250
 NucSpn=           0           0           0           0           0           1           1           1           1           1
 AtZEff=  -0.0000000  -0.0000000  -0.0000000  -0.0000000  -0.0000000  -0.0000000  -0.0000000  -0.0000000  -0.0000000  -0.0000000
 NQMom=    0.0000000   0.0000000   0.0000000   0.0000000   0.0000000   0.0000000   0.0000000   0.0000000   0.0000000   0.0000000
 NMagM=    0.0000000   0.0000000   0.0000000   0.0000000   0.0000000   2.7928460   2.7928460   2.7928460   2.7928460   2.7928460
 AtZNuc=   6.0000000   6.0000000   6.0000000   6.0000000   6.0000000   1.0000000   1.0000000   1.0000000   1.0000000   1.0000000

  Atom        21          22          23          24          25          26          27          28          29          30
 IAtWgt=           1           1           1           1           1           1           1           1           1           1
 AtmWgt=   1.0078250   1.0078250   1.0078250   1.0078250   1.0078250   1.0078250   1.0078250   1.0078250   1.0078250   1.0078250
 NucSpn=           1           1           1           1           1           1           1           1           1           1
 AtZEff=  -0.0000000  -0.0000000  -0.0000000  -0.0000000  -0.0000000  -0.0000000  -0.0000000  -0.0000000  -0.0000000  -0.0000000
 NQMom=    0.0000000   0.0000000   0.0000000   0.0000000   0.0000000   0.0000000   0.0000000   0.0000000   0.0000000   0.0000000
 NMagM=    2.7928460   2.7928460   2.7928460   2.7928460   2.7928460   2.7928460   2.7928460   2.7928460   2.7928460   2.7928460
 AtZNuc=   1.0000000   1.0000000   1.0000000   1.0000000   1.0000000   1.0000000   1.0000000   1.0000000   1.0000000   1.0000000

  Atom        31          32          33          34          35          36          37          38          39          40
 IAtWgt=          12           1           1          16          14          12          16          12          12          12
 AtmWgt=  12.0000000   1.0078250   1.0078250  15.9949146  14.0030740  12.0000000  15.9949146  12.0000000  12.0000000  12.0000000
 NucSpn=           0           1           1           0           2           0           0           0           0           0
 AtZEff=  -0.0000000  -0.0000000  -0.0000000  -0.0000000  -0.0000000  -0.0000000  -0.0000000  -0.0000000  -0.0000000  -0.0000000
 NQMom=    0.0000000   0.0000000   0.0000000   0.0000000   2.0440000   0.0000000   0.0000000   0.0000000   0.0000000   0.0000000
 NMagM=    0.0000000   2.7928460   2.7928460   0.0000000   0.4037610   0.0000000   0.0000000   0.0000000   0.0000000   0.0000000
 AtZNuc=   6.0000000   1.0000000   1.0000000   8.0000000   7.0000000   6.0000000   8.0000000   6.0000000   6.0000000   6.0000000

  Atom        41          42          43          44          45          46          47          48          49          50
 IAtWgt=          12           1           1           1           1           1           1           1           1          12
 AtmWgt=  12.0000000   1.0078250   1.0078250   1.0078250   1.0078250   1.0078250   1.0078250   1.0078250   1.0078250  12.0000000
 NucSpn=           0           1           1           1           1           1           1           1           1           0
 AtZEff=  -0.0000000  -0.0000000  -0.0000000  -0.0000000  -0.0000000  -0.0000000  -0.0000000  -0.0000000  -0.0000000  -0.0000000
 NQMom=    0.0000000   0.0000000   0.0000000   0.0000000   0.0000000   0.0000000   0.0000000   0.0000000   0.0000000   0.0000000
 NMagM=    0.0000000   2.7928460   2.7928460   2.7928460   2.7928460   2.7928460   2.7928460   2.7928460   2.7928460   0.0000000
 AtZNuc=   6.0000000   1.0000000   1.0000000   1.0000000   1.0000000   1.0000000   1.0000000   1.0000000   1.0000000   6.0000000

  Atom        51          52          53          54          55          56          57          58          59          60
 IAtWgt=          12          12          12          12           1           1           1           1           1           1
 AtmWgt=  12.0000000  12.0000000  12.0000000  12.0000000   1.0078250   1.0078250   1.0078250   1.0078250   1.0078250   1.0078250
 NucSpn=           0           0           0           0           1           1           1           1           1           1
 AtZEff=  -0.0000000  -0.0000000  -0.0000000  -0.0000000  -0.0000000  -0.0000000  -0.0000000  -0.0000000  -0.0000000  -0.0000000
 NQMom=    0.0000000   0.0000000   0.0000000   0.0000000   0.0000000   0.0000000   0.0000000   0.0000000   0.0000000   0.0000000
 NMagM=    0.0000000   0.0000000   0.0000000   0.0000000   2.7928460   2.7928460   2.7928460   2.7928460   2.7928460   2.7928460
 AtZNuc=   6.0000000   6.0000000   6.0000000   6.0000000   1.0000000   1.0000000   1.0000000   1.0000000   1.0000000   1.0000000

  Atom        61          62          63          64
 IAtWgt=           1           1           1           1
 AtmWgt=   1.0078250   1.0078250   1.0078250   1.0078250
 NucSpn=           1           1           1           1
 AtZEff=  -0.0000000  -0.0000000  -0.0000000  -0.0000000
 NQMom=    0.0000000   0.0000000   0.0000000   0.0000000
 NMagM=    2.7928460   2.7928460   2.7928460   2.7928460
 AtZNuc=   1.0000000   1.0000000   1.0000000   1.0000000
 Leave Link  101 at Wed Jan  8 16:34:03 2025, MaxMem=  4026531840 cpu:              24.9 elap:               1.3
 (Enter /usr/local/intel/g16/l103.exe)

 GradGradGradGradGradGradGradGradGradGradGradGradGradGradGradGradGradGrad
 Berny optimization.
 Initialization pass.
                           ----------------------------
                           !    Initial Parameters    !
                           ! (Angstroms and Degrees)  !
 --------------------------                            --------------------------
 ! Name  Definition              Value          Derivative Info.                !
 --------------------------------------------------------------------------------
 ! R1    R(1,2)                  1.4028         estimate D2E/DX2                !
 ! R2    R(1,6)                  1.4024         estimate D2E/DX2                !
 ! R3    R(1,16)                 1.085          estimate D2E/DX2                !
 ! R4    R(2,3)                  1.4042         estimate D2E/DX2                !
 ! R5    R(2,17)                 1.085          estimate D2E/DX2                !
 ! R6    R(3,4)                  1.4004         estimate D2E/DX2                !
 ! R7    R(3,18)                 1.0851         estimate D2E/DX2                !
 ! R8    R(4,5)                  1.4066         estimate D2E/DX2                !
 ! R9    R(4,19)                 1.0855         estimate D2E/DX2                !
 ! R10   R(5,6)                  1.4042         estimate D2E/DX2                !
 ! R11   R(5,7)                  1.5159         estimate D2E/DX2                !
 ! R12   R(6,20)                 1.0856         estimate D2E/DX2                !
 ! R13   R(7,21)                 1.0934         estimate D2E/DX2                !
 ! R14   R(7,31)                 1.5324         estimate D2E/DX2                !
 ! R15   R(7,34)                 1.475          estimate D2E/DX2                !
 ! R16   R(8,9)                  1.5251         estimate D2E/DX2                !
 ! R17   R(8,15)                 1.5466         estimate D2E/DX2                !
 ! R18   R(8,22)                 1.0964         estimate D2E/DX2                !
 ! R19   R(8,31)                 1.5432         estimate D2E/DX2                !
 ! R20   R(9,10)                 1.4077         estimate D2E/DX2                !
 ! R21   R(9,14)                 1.4069         estimate D2E/DX2                !
 ! R22   R(10,11)                1.4023         estimate D2E/DX2                !
 ! R23   R(10,23)                1.0861         estimate D2E/DX2                !
 ! R24   R(11,12)                1.4032         estimate D2E/DX2                !
 ! R25   R(11,24)                1.0854         estimate D2E/DX2                !
 ! R26   R(12,13)                1.4031         estimate D2E/DX2                !
 ! R27   R(12,25)                1.085          estimate D2E/DX2                !
 ! R28   R(13,14)                1.4016         estimate D2E/DX2                !
 ! R29   R(13,26)                1.0852         estimate D2E/DX2                !
 ! R30   R(14,27)                1.0869         estimate D2E/DX2                !
 ! R31   R(15,28)                1.0963         estimate D2E/DX2                !
 ! R32   R(15,29)                1.0967         estimate D2E/DX2                !
 ! R33   R(15,30)                1.0949         estimate D2E/DX2                !
 ! R34   R(31,32)                1.0974         estimate D2E/DX2                !
 ! R35   R(31,33)                1.097          estimate D2E/DX2                !
 ! R36   R(34,35)                1.4564         estimate D2E/DX2                !
 ! R37   R(35,36)                1.5205         estimate D2E/DX2                !
 ! R38   R(35,39)                1.5142         estimate D2E/DX2                !
 ! R39   R(36,37)                1.4726         estimate D2E/DX2                !
 ! R40   R(36,50)                1.5389         estimate D2E/DX2                !
 ! R41   R(36,54)                1.5342         estimate D2E/DX2                !
 ! R42   R(37,38)                1.4498         estimate D2E/DX2                !
 ! R43   R(38,39)                1.5372         estimate D2E/DX2                !
 ! R44   R(38,42)                1.0905         estimate D2E/DX2                !
 ! R45   R(38,43)                1.0986         estimate D2E/DX2                !
 ! R46   R(39,40)                1.5336         estimate D2E/DX2                !
 ! R47   R(39,41)                1.54           estimate D2E/DX2                !
 ! R48   R(40,44)                1.095          estimate D2E/DX2                !
 ! R49   R(40,45)                1.0947         estimate D2E/DX2                !
 ! R50   R(40,46)                1.0969         estimate D2E/DX2                !
 ! R51   R(41,47)                1.0962         estimate D2E/DX2                !
 ! R52   R(41,48)                1.0941         estimate D2E/DX2                !
 ! R53   R(41,49)                1.0897         estimate D2E/DX2                !
 ! R54   R(50,51)                1.5365         estimate D2E/DX2                !
 ! R55   R(50,55)                1.0955         estimate D2E/DX2                !
 ! R56   R(50,56)                1.0978         estimate D2E/DX2                !
 ! R57   R(51,52)                1.5388         estimate D2E/DX2                !
 ! R58   R(51,57)                1.0965         estimate D2E/DX2                !
 ! R59   R(51,58)                1.0924         estimate D2E/DX2                !
 ! R60   R(52,53)                1.5399         estimate D2E/DX2                !
 ! R61   R(52,59)                1.1001         estimate D2E/DX2                !
 ! R62   R(52,60)                1.0969         estimate D2E/DX2                !
 ! R63   R(53,54)                1.5395         estimate D2E/DX2                !
 ! R64   R(53,61)                1.0969         estimate D2E/DX2                !
 ! R65   R(53,62)                1.0939         estimate D2E/DX2                !
 ! R66   R(54,63)                1.0974         estimate D2E/DX2                !
 ! R67   R(54,64)                1.0933         estimate D2E/DX2                !
 ! A1    A(2,1,6)              119.9437         estimate D2E/DX2                !
 ! A2    A(2,1,16)             120.0689         estimate D2E/DX2                !
 ! A3    A(6,1,16)             119.9862         estimate D2E/DX2                !
 ! A4    A(1,2,3)              119.6262         estimate D2E/DX2                !
 ! A5    A(1,2,17)             120.2101         estimate D2E/DX2                !
 ! A6    A(3,2,17)             120.1636         estimate D2E/DX2                !
 ! A7    A(2,3,4)              120.143          estimate D2E/DX2                !
 ! A8    A(2,3,18)             119.9852         estimate D2E/DX2                !
 ! A9    A(4,3,18)             119.8716         estimate D2E/DX2                !
 ! A10   A(3,4,5)              120.649          estimate D2E/DX2                !
 ! A11   A(3,4,19)             119.2833         estimate D2E/DX2                !
 ! A12   A(5,4,19)             120.066          estimate D2E/DX2                !
 ! A13   A(4,5,6)              118.7913         estimate D2E/DX2                !
 ! A14   A(4,5,7)              121.9859         estimate D2E/DX2                !
 ! A15   A(6,5,7)              119.2227         estimate D2E/DX2                !
 ! A16   A(1,6,5)              120.8448         estimate D2E/DX2                !
 ! A17   A(1,6,20)             120.0512         estimate D2E/DX2                !
 ! A18   A(5,6,20)             119.0952         estimate D2E/DX2                !
 ! A19   A(5,7,21)             108.2161         estimate D2E/DX2                !
 ! A20   A(5,7,31)             113.4865         estimate D2E/DX2                !
 ! A21   A(5,7,34)             112.8482         estimate D2E/DX2                !
 ! A22   A(21,7,31)            109.6785         estimate D2E/DX2                !
 ! A23   A(21,7,34)            107.4827         estimate D2E/DX2                !
 ! A24   A(31,7,34)            104.9414         estimate D2E/DX2                !
 ! A25   A(9,8,15)             109.7206         estimate D2E/DX2                !
 ! A26   A(9,8,22)             107.8759         estimate D2E/DX2                !
 ! A27   A(9,8,31)             114.2369         estimate D2E/DX2                !
 ! A28   A(15,8,22)            107.8479         estimate D2E/DX2                !
 ! A29   A(15,8,31)            109.5984         estimate D2E/DX2                !
 ! A30   A(22,8,31)            107.3366         estimate D2E/DX2                !
 ! A31   A(8,9,10)             122.1049         estimate D2E/DX2                !
 ! A32   A(8,9,14)             119.6948         estimate D2E/DX2                !
 ! A33   A(10,9,14)            118.156          estimate D2E/DX2                !
 ! A34   A(9,10,11)            120.9469         estimate D2E/DX2                !
 ! A35   A(9,10,23)            120.0457         estimate D2E/DX2                !
 ! A36   A(11,10,23)           119.0064         estimate D2E/DX2                !
 ! A37   A(10,11,12)           120.2677         estimate D2E/DX2                !
 ! A38   A(10,11,24)           119.751          estimate D2E/DX2                !
 ! A39   A(12,11,24)           119.9813         estimate D2E/DX2                !
 ! A40   A(11,12,13)           119.3507         estimate D2E/DX2                !
 ! A41   A(11,12,25)           120.308          estimate D2E/DX2                !
 ! A42   A(13,12,25)           120.3412         estimate D2E/DX2                !
 ! A43   A(12,13,14)           120.0646         estimate D2E/DX2                !
 ! A44   A(12,13,26)           120.0913         estimate D2E/DX2                !
 ! A45   A(14,13,26)           119.8434         estimate D2E/DX2                !
 ! A46   A(9,14,13)            121.2082         estimate D2E/DX2                !
 ! A47   A(9,14,27)            119.2661         estimate D2E/DX2                !
 ! A48   A(13,14,27)           119.5253         estimate D2E/DX2                !
 ! A49   A(8,15,28)            110.7409         estimate D2E/DX2                !
 ! A50   A(8,15,29)            110.4822         estimate D2E/DX2                !
 ! A51   A(8,15,30)            110.9227         estimate D2E/DX2                !
 ! A52   A(28,15,29)           108.3275         estimate D2E/DX2                !
 ! A53   A(28,15,30)           108.3782         estimate D2E/DX2                !
 ! A54   A(29,15,30)           107.8903         estimate D2E/DX2                !
 ! A55   A(7,31,8)             115.0074         estimate D2E/DX2                !
 ! A56   A(7,31,32)            108.3154         estimate D2E/DX2                !
 ! A57   A(7,31,33)            108.9165         estimate D2E/DX2                !
 ! A58   A(8,31,32)            110.0297         estimate D2E/DX2                !
 ! A59   A(8,31,33)            107.7174         estimate D2E/DX2                !
 ! A60   A(32,31,33)           106.5224         estimate D2E/DX2                !
 ! A61   A(7,34,35)            110.8568         estimate D2E/DX2                !
 ! A62   A(34,35,36)           111.2627         estimate D2E/DX2                !
 ! A63   A(34,35,39)           110.9553         estimate D2E/DX2                !
 ! A64   A(36,35,39)           108.1383         estimate D2E/DX2                !
 ! A65   A(35,36,37)           103.7296         estimate D2E/DX2                !
 ! A66   A(35,36,50)           110.8176         estimate D2E/DX2                !
 ! A67   A(35,36,54)           115.7454         estimate D2E/DX2                !
 ! A68   A(37,36,50)           107.172          estimate D2E/DX2                !
 ! A69   A(37,36,54)           106.4863         estimate D2E/DX2                !
 ! A70   A(50,36,54)           112.0868         estimate D2E/DX2                !
 ! A71   A(36,37,38)           106.9389         estimate D2E/DX2                !
 ! A72   A(37,38,39)           103.4671         estimate D2E/DX2                !
 ! A73   A(37,38,42)           107.8589         estimate D2E/DX2                !
 ! A74   A(37,38,43)           111.115          estimate D2E/DX2                !
 ! A75   A(39,38,42)           112.7563         estimate D2E/DX2                !
 ! A76   A(39,38,43)           111.4814         estimate D2E/DX2                !
 ! A77   A(42,38,43)           109.9549         estimate D2E/DX2                !
 ! A78   A(35,39,38)            99.075          estimate D2E/DX2                !
 ! A79   A(35,39,40)           111.0038         estimate D2E/DX2                !
 ! A80   A(35,39,41)           113.2001         estimate D2E/DX2                !
 ! A81   A(38,39,40)           112.021          estimate D2E/DX2                !
 ! A82   A(38,39,41)           109.6785         estimate D2E/DX2                !
 ! A83   A(40,39,41)           111.3106         estimate D2E/DX2                !
 ! A84   A(39,40,44)           111.4927         estimate D2E/DX2                !
 ! A85   A(39,40,45)           110.1891         estimate D2E/DX2                !
 ! A86   A(39,40,46)           110.1199         estimate D2E/DX2                !
 ! A87   A(44,40,45)           108.9603         estimate D2E/DX2                !
 ! A88   A(44,40,46)           107.1794         estimate D2E/DX2                !
 ! A89   A(45,40,46)           108.8132         estimate D2E/DX2                !
 ! A90   A(39,41,47)           109.4178         estimate D2E/DX2                !
 ! A91   A(39,41,48)           110.8219         estimate D2E/DX2                !
 ! A92   A(39,41,49)           110.4071         estimate D2E/DX2                !
 ! A93   A(47,41,48)           108.9441         estimate D2E/DX2                !
 ! A94   A(47,41,49)           108.4823         estimate D2E/DX2                !
 ! A95   A(48,41,49)           108.7186         estimate D2E/DX2                !
 ! A96   A(36,50,51)           113.6467         estimate D2E/DX2                !
 ! A97   A(36,50,55)           108.8298         estimate D2E/DX2                !
 ! A98   A(36,50,56)           106.4114         estimate D2E/DX2                !
 ! A99   A(51,50,55)           110.4304         estimate D2E/DX2                !
 ! A100  A(51,50,56)           109.3778         estimate D2E/DX2                !
 ! A101  A(55,50,56)           107.9241         estimate D2E/DX2                !
 ! A102  A(50,51,52)           111.1345         estimate D2E/DX2                !
 ! A103  A(50,51,57)           109.1889         estimate D2E/DX2                !
 ! A104  A(50,51,58)           109.6892         estimate D2E/DX2                !
 ! A105  A(52,51,57)           110.3555         estimate D2E/DX2                !
 ! A106  A(52,51,58)           109.4376         estimate D2E/DX2                !
 ! A107  A(57,51,58)           106.9413         estimate D2E/DX2                !
 ! A108  A(51,52,53)           110.6675         estimate D2E/DX2                !
 ! A109  A(51,52,59)           109.5141         estimate D2E/DX2                !
 ! A110  A(51,52,60)           109.9001         estimate D2E/DX2                !
 ! A111  A(53,52,59)           109.5518         estimate D2E/DX2                !
 ! A112  A(53,52,60)           109.9013         estimate D2E/DX2                !
 ! A113  A(59,52,60)           107.2392         estimate D2E/DX2                !
 ! A114  A(52,53,54)           111.8511         estimate D2E/DX2                !
 ! A115  A(52,53,61)           110.2434         estimate D2E/DX2                !
 ! A116  A(52,53,62)           109.2714         estimate D2E/DX2                !
 ! A117  A(54,53,61)           108.9409         estimate D2E/DX2                !
 ! A118  A(54,53,62)           108.9586         estimate D2E/DX2                !
 ! A119  A(61,53,62)           107.4664         estimate D2E/DX2                !
 ! A120  A(36,54,53)           114.0508         estimate D2E/DX2                !
 ! A121  A(36,54,63)           105.365          estimate D2E/DX2                !
 ! A122  A(36,54,64)           109.3061         estimate D2E/DX2                !
 ! A123  A(53,54,63)           109.5876         estimate D2E/DX2                !
 ! A124  A(53,54,64)           110.5978         estimate D2E/DX2                !
 ! A125  A(63,54,64)           107.6278         estimate D2E/DX2                !
 ! D1    D(6,1,2,3)              0.2335         estimate D2E/DX2                !
 ! D2    D(6,1,2,17)          -179.756          estimate D2E/DX2                !
 ! D3    D(16,1,2,3)           179.8506         estimate D2E/DX2                !
 ! D4    D(16,1,2,17)           -0.1389         estimate D2E/DX2                !
 ! D5    D(2,1,6,5)              0.0411         estimate D2E/DX2                !
 ! D6    D(2,1,6,20)           178.9514         estimate D2E/DX2                !
 ! D7    D(16,1,6,5)          -179.5763         estimate D2E/DX2                !
 ! D8    D(16,1,6,20)           -0.6659         estimate D2E/DX2                !
 ! D9    D(1,2,3,4)             -0.1488         estimate D2E/DX2                !
 ! D10   D(1,2,3,18)          -179.9828         estimate D2E/DX2                !
 ! D11   D(17,2,3,4)           179.8407         estimate D2E/DX2                !
 ! D12   D(17,2,3,18)            0.0068         estimate D2E/DX2                !
 ! D13   D(2,3,4,5)             -0.2121         estimate D2E/DX2                !
 ! D14   D(2,3,4,19)          -179.7522         estimate D2E/DX2                !
 ! D15   D(18,3,4,5)           179.622          estimate D2E/DX2                !
 ! D16   D(18,3,4,19)            0.0819         estimate D2E/DX2                !
 ! D17   D(3,4,5,6)              0.48           estimate D2E/DX2                !
 ! D18   D(3,4,5,7)           -179.4928         estimate D2E/DX2                !
 ! D19   D(19,4,5,6)          -179.9834         estimate D2E/DX2                !
 ! D20   D(19,4,5,7)             0.0437         estimate D2E/DX2                !
 ! D21   D(4,5,6,1)             -0.3949         estimate D2E/DX2                !
 ! D22   D(4,5,6,20)          -179.3155         estimate D2E/DX2                !
 ! D23   D(7,5,6,1)            179.5787         estimate D2E/DX2                !
 ! D24   D(7,5,6,20)             0.6581         estimate D2E/DX2                !
 ! D25   D(4,5,7,21)          -162.7492         estimate D2E/DX2                !
 ! D26   D(4,5,7,31)           -40.7752         estimate D2E/DX2                !
 ! D27   D(4,5,7,34)            78.4438         estimate D2E/DX2                !
 ! D28   D(6,5,7,21)            17.2781         estimate D2E/DX2                !
 ! D29   D(6,5,7,31)           139.2521         estimate D2E/DX2                !
 ! D30   D(6,5,7,34)          -101.529          estimate D2E/DX2                !
 ! D31   D(5,7,31,8)          -168.8952         estimate D2E/DX2                !
 ! D32   D(5,7,31,32)          -45.3557         estimate D2E/DX2                !
 ! D33   D(5,7,31,33)           70.1187         estimate D2E/DX2                !
 ! D34   D(21,7,31,8)          -47.7384         estimate D2E/DX2                !
 ! D35   D(21,7,31,32)          75.8012         estimate D2E/DX2                !
 ! D36   D(21,7,31,33)        -168.7245         estimate D2E/DX2                !
 ! D37   D(34,7,31,8)           67.4535         estimate D2E/DX2                !
 ! D38   D(34,7,31,32)        -169.007          estimate D2E/DX2                !
 ! D39   D(34,7,31,33)         -53.5326         estimate D2E/DX2                !
 ! D40   D(5,7,34,35)           70.1296         estimate D2E/DX2                !
 ! D41   D(21,7,34,35)         -49.1032         estimate D2E/DX2                !
 ! D42   D(31,7,34,35)        -165.8119         estimate D2E/DX2                !
 ! D43   D(15,8,9,10)          -87.4055         estimate D2E/DX2                !
 ! D44   D(15,8,9,14)           90.1302         estimate D2E/DX2                !
 ! D45   D(22,8,9,10)          155.3548         estimate D2E/DX2                !
 ! D46   D(22,8,9,14)          -27.1095         estimate D2E/DX2                !
 ! D47   D(31,8,9,10)           36.1086         estimate D2E/DX2                !
 ! D48   D(31,8,9,14)         -146.3557         estimate D2E/DX2                !
 ! D49   D(9,8,15,28)         -177.4745         estimate D2E/DX2                !
 ! D50   D(9,8,15,29)           62.5002         estimate D2E/DX2                !
 ! D51   D(9,8,15,30)          -57.0958         estimate D2E/DX2                !
 ! D52   D(22,8,15,28)         -60.2173         estimate D2E/DX2                !
 ! D53   D(22,8,15,29)         179.7575         estimate D2E/DX2                !
 ! D54   D(22,8,15,30)          60.1614         estimate D2E/DX2                !
 ! D55   D(31,8,15,28)          56.3306         estimate D2E/DX2                !
 ! D56   D(31,8,15,29)         -63.6946         estimate D2E/DX2                !
 ! D57   D(31,8,15,30)         176.7093         estimate D2E/DX2                !
 ! D58   D(9,8,31,7)            53.9717         estimate D2E/DX2                !
 ! D59   D(9,8,31,32)          -68.6528         estimate D2E/DX2                !
 ! D60   D(9,8,31,33)          175.6104         estimate D2E/DX2                !
 ! D61   D(15,8,31,7)          177.5516         estimate D2E/DX2                !
 ! D62   D(15,8,31,32)          54.9271         estimate D2E/DX2                !
 ! D63   D(15,8,31,33)         -60.8097         estimate D2E/DX2                !
 ! D64   D(22,8,31,7)          -65.5782         estimate D2E/DX2                !
 ! D65   D(22,8,31,32)         171.7973         estimate D2E/DX2                !
 ! D66   D(22,8,31,33)          56.0605         estimate D2E/DX2                !
 ! D67   D(8,9,10,11)          178.4079         estimate D2E/DX2                !
 ! D68   D(8,9,10,23)           -1.9762         estimate D2E/DX2                !
 ! D69   D(14,9,10,11)           0.8359         estimate D2E/DX2                !
 ! D70   D(14,9,10,23)        -179.5482         estimate D2E/DX2                !
 ! D71   D(8,9,14,13)         -178.2567         estimate D2E/DX2                !
 ! D72   D(8,9,14,27)            1.9645         estimate D2E/DX2                !
 ! D73   D(10,9,14,13)          -0.6243         estimate D2E/DX2                !
 ! D74   D(10,9,14,27)         179.5969         estimate D2E/DX2                !
 ! D75   D(9,10,11,12)          -0.3832         estimate D2E/DX2                !
 ! D76   D(9,10,11,24)         179.5968         estimate D2E/DX2                !
 ! D77   D(23,10,11,12)        179.997          estimate D2E/DX2                !
 ! D78   D(23,10,11,24)         -0.0229         estimate D2E/DX2                !
 ! D79   D(10,11,12,13)         -0.3012         estimate D2E/DX2                !
 ! D80   D(10,11,12,25)        179.8367         estimate D2E/DX2                !
 ! D81   D(24,11,12,13)        179.7188         estimate D2E/DX2                !
 ! D82   D(24,11,12,25)         -0.1434         estimate D2E/DX2                !
 ! D83   D(11,12,13,14)          0.5113         estimate D2E/DX2                !
 ! D84   D(11,12,13,26)       -179.7906         estimate D2E/DX2                !
 ! D85   D(25,12,13,14)       -179.6266         estimate D2E/DX2                !
 ! D86   D(25,12,13,26)          0.0716         estimate D2E/DX2                !
 ! D87   D(12,13,14,9)          -0.0432         estimate D2E/DX2                !
 ! D88   D(12,13,14,27)        179.735          estimate D2E/DX2                !
 ! D89   D(26,13,14,9)        -179.7421         estimate D2E/DX2                !
 ! D90   D(26,13,14,27)          0.0361         estimate D2E/DX2                !
 ! D91   D(7,34,35,36)        -139.9699         estimate D2E/DX2                !
 ! D92   D(7,34,35,39)          99.5834         estimate D2E/DX2                !
 ! D93   D(34,35,36,37)       -127.8326         estimate D2E/DX2                !
 ! D94   D(34,35,36,50)        117.4559         estimate D2E/DX2                !
 ! D95   D(34,35,36,54)        -11.5914         estimate D2E/DX2                !
 ! D96   D(39,35,36,37)         -5.7388         estimate D2E/DX2                !
 ! D97   D(39,35,36,50)       -120.4503         estimate D2E/DX2                !
 ! D98   D(39,35,36,54)        110.5024         estimate D2E/DX2                !
 ! D99   D(34,35,39,38)        150.904          estimate D2E/DX2                !
 ! D100  D(34,35,39,40)        -91.1882         estimate D2E/DX2                !
 ! D101  D(34,35,39,41)         34.8338         estimate D2E/DX2                !
 ! D102  D(36,35,39,38)         28.6217         estimate D2E/DX2                !
 ! D103  D(36,35,39,40)        146.5295         estimate D2E/DX2                !
 ! D104  D(36,35,39,41)        -87.4485         estimate D2E/DX2                !
 ! D105  D(35,36,37,38)        -21.8027         estimate D2E/DX2                !
 ! D106  D(50,36,37,38)         95.4822         estimate D2E/DX2                !
 ! D107  D(54,36,37,38)       -144.3931         estimate D2E/DX2                !
 ! D108  D(35,36,50,51)        -82.1528         estimate D2E/DX2                !
 ! D109  D(35,36,50,55)         41.3465         estimate D2E/DX2                !
 ! D110  D(35,36,50,56)        157.4125         estimate D2E/DX2                !
 ! D111  D(37,36,50,51)        165.3116         estimate D2E/DX2                !
 ! D112  D(37,36,50,55)        -71.1891         estimate D2E/DX2                !
 ! D113  D(37,36,50,56)         44.8769         estimate D2E/DX2                !
 ! D114  D(54,36,50,51)         48.8277         estimate D2E/DX2                !
 ! D115  D(54,36,50,55)        172.327          estimate D2E/DX2                !
 ! D116  D(54,36,50,56)        -71.607          estimate D2E/DX2                !
 ! D117  D(35,36,54,53)         80.9918         estimate D2E/DX2                !
 ! D118  D(35,36,54,63)       -158.7854         estimate D2E/DX2                !
 ! D119  D(35,36,54,64)        -43.3791         estimate D2E/DX2                !
 ! D120  D(37,36,54,53)       -164.3303         estimate D2E/DX2                !
 ! D121  D(37,36,54,63)        -44.1075         estimate D2E/DX2                !
 ! D122  D(37,36,54,64)         71.2988         estimate D2E/DX2                !
 ! D123  D(50,36,54,53)        -47.4338         estimate D2E/DX2                !
 ! D124  D(50,36,54,63)         72.7889         estimate D2E/DX2                !
 ! D125  D(50,36,54,64)       -171.8048         estimate D2E/DX2                !
 ! D126  D(36,37,38,39)         40.8834         estimate D2E/DX2                !
 ! D127  D(36,37,38,42)        160.5559         estimate D2E/DX2                !
 ! D128  D(36,37,38,43)        -78.861          estimate D2E/DX2                !
 ! D129  D(37,38,39,35)        -41.7031         estimate D2E/DX2                !
 ! D130  D(37,38,39,40)       -158.8415         estimate D2E/DX2                !
 ! D131  D(37,38,39,41)         77.0348         estimate D2E/DX2                !
 ! D132  D(42,38,39,35)       -157.9611         estimate D2E/DX2                !
 ! D133  D(42,38,39,40)         84.9006         estimate D2E/DX2                !
 ! D134  D(42,38,39,41)        -39.2232         estimate D2E/DX2                !
 ! D135  D(43,38,39,35)         77.7899         estimate D2E/DX2                !
 ! D136  D(43,38,39,40)        -39.3484         estimate D2E/DX2                !
 ! D137  D(43,38,39,41)       -163.4722         estimate D2E/DX2                !
 ! D138  D(35,39,40,44)         76.9682         estimate D2E/DX2                !
 ! D139  D(35,39,40,45)        -44.1527         estimate D2E/DX2                !
 ! D140  D(35,39,40,46)       -164.1947         estimate D2E/DX2                !
 ! D141  D(38,39,40,44)       -173.305          estimate D2E/DX2                !
 ! D142  D(38,39,40,45)         65.5741         estimate D2E/DX2                !
 ! D143  D(38,39,40,46)        -54.4679         estimate D2E/DX2                !
 ! D144  D(41,39,40,44)        -50.0972         estimate D2E/DX2                !
 ! D145  D(41,39,40,45)       -171.2181         estimate D2E/DX2                !
 ! D146  D(41,39,40,46)         68.74           estimate D2E/DX2                !
 ! D147  D(35,39,41,47)       -176.0495         estimate D2E/DX2                !
 ! D148  D(35,39,41,48)         63.7959         estimate D2E/DX2                !
 ! D149  D(35,39,41,49)        -56.723          estimate D2E/DX2                !
 ! D150  D(38,39,41,47)         74.3458         estimate D2E/DX2                !
 ! D151  D(38,39,41,48)        -45.8088         estimate D2E/DX2                !
 ! D152  D(38,39,41,49)       -166.3277         estimate D2E/DX2                !
 ! D153  D(40,39,41,47)        -50.1912         estimate D2E/DX2                !
 ! D154  D(40,39,41,48)       -170.3458         estimate D2E/DX2                !
 ! D155  D(40,39,41,49)         69.1353         estimate D2E/DX2                !
 ! D156  D(36,50,51,52)        -53.9938         estimate D2E/DX2                !
 ! D157  D(36,50,51,57)       -175.9586         estimate D2E/DX2                !
 ! D158  D(36,50,51,58)         67.1548         estimate D2E/DX2                !
 ! D159  D(55,50,51,52)       -176.6159         estimate D2E/DX2                !
 ! D160  D(55,50,51,57)         61.4192         estimate D2E/DX2                !
 ! D161  D(55,50,51,58)        -55.4674         estimate D2E/DX2                !
 ! D162  D(56,50,51,52)         64.754          estimate D2E/DX2                !
 ! D163  D(56,50,51,57)        -57.2108         estimate D2E/DX2                !
 ! D164  D(56,50,51,58)       -174.0975         estimate D2E/DX2                !
 ! D165  D(50,51,52,53)         56.6069         estimate D2E/DX2                !
 ! D166  D(50,51,52,59)        -64.2676         estimate D2E/DX2                !
 ! D167  D(50,51,52,60)        178.1722         estimate D2E/DX2                !
 ! D168  D(57,51,52,53)        177.8906         estimate D2E/DX2                !
 ! D169  D(57,51,52,59)         57.0161         estimate D2E/DX2                !
 ! D170  D(57,51,52,60)        -60.544          estimate D2E/DX2                !
 ! D171  D(58,51,52,53)        -64.6892         estimate D2E/DX2                !
 ! D172  D(58,51,52,59)        174.4363         estimate D2E/DX2                !
 ! D173  D(58,51,52,60)         56.8762         estimate D2E/DX2                !
 ! D174  D(51,52,53,54)        -55.3905         estimate D2E/DX2                !
 ! D175  D(51,52,53,61)       -176.7649         estimate D2E/DX2                !
 ! D176  D(51,52,53,62)         65.3411         estimate D2E/DX2                !
 ! D177  D(59,52,53,54)         65.4617         estimate D2E/DX2                !
 ! D178  D(59,52,53,61)        -55.9128         estimate D2E/DX2                !
 ! D179  D(59,52,53,62)       -173.8068         estimate D2E/DX2                !
 ! D180  D(60,52,53,54)       -176.9551         estimate D2E/DX2                !
 ! D181  D(60,52,53,61)         61.6705         estimate D2E/DX2                !
 ! D182  D(60,52,53,62)        -56.2236         estimate D2E/DX2                !
 ! D183  D(52,53,54,36)         51.4297         estimate D2E/DX2                !
 ! D184  D(52,53,54,63)        -66.3963         estimate D2E/DX2                !
 ! D185  D(52,53,54,64)        175.1061         estimate D2E/DX2                !
 ! D186  D(61,53,54,36)        173.5534         estimate D2E/DX2                !
 ! D187  D(61,53,54,63)         55.7273         estimate D2E/DX2                !
 ! D188  D(61,53,54,64)        -62.7703         estimate D2E/DX2                !
 ! D189  D(62,53,54,36)        -69.4835         estimate D2E/DX2                !
 ! D190  D(62,53,54,63)        172.6905         estimate D2E/DX2                !
 ! D191  D(62,53,54,64)         54.1929         estimate D2E/DX2                !
 --------------------------------------------------------------------------------
 Trust Radius=3.00D-01 FncErr=1.00D-07 GrdErr=1.00D-06 EigMax=2.50D+02 EigMin=1.00D-04
 Number of steps in this run=    384 maximum allowed number of steps=    384.
 GradGradGradGradGradGradGradGradGradGradGradGradGradGradGradGradGradGrad

 Leave Link  103 at Wed Jan  8 16:34:03 2025, MaxMem=  4026531840 cpu:               0.4 elap:               0.0
 (Enter /usr/local/intel/g16/l202.exe)
 Stoichiometry    C26H35NO2
 Framework group  C1[X(C26H35NO2)]
 Deg. of freedom   186
 Full point group                 C1      NOp   1
 Largest Abelian subgroup         C1      NOp   1
 Largest concise Abelian subgroup C1      NOp   1
                         Standard orientation:                         
 ---------------------------------------------------------------------
 Center     Atomic      Atomic             Coordinates (Angstroms)
 Number     Number       Type             X           Y           Z
 ---------------------------------------------------------------------
      1          6           0       -2.024249    2.759188   -2.239558
      2          6           0       -2.824982    3.529109   -1.382917
      3          6           0       -2.617071    3.466497    0.004405
      4          6           0       -1.617831    2.637452    0.529002
      5          6           0       -0.814875    1.855945   -0.321361
      6          6           0       -1.026469    1.929639   -1.707601
      7          6           0        0.267518    0.939788    0.214396
      8          6           0        2.342534    0.773172    1.762134
      9          6           0        3.298846    0.508893    0.603893
     10          6           0        3.497939    1.443257   -0.430066
     11          6           0        4.408098    1.189235   -1.466182
     12          6           0        5.144830   -0.004881   -1.483494
     13          6           0        4.966258   -0.938171   -0.451150
     14          6           0        4.051568   -0.679476    0.578826
     15          6           0        3.084376    1.528759    2.889407
     16          1           0       -2.180284    2.800215   -3.312493
     17          1           0       -3.600839    4.169403   -1.789584
     18          1           0       -3.233248    4.059337    0.672388
     19          1           0       -1.471854    2.596707    1.603867
     20          1           0       -0.417115    1.320173   -2.367759
     21          1           0        0.940798    0.687886   -0.609483
     22          1           0        2.021965   -0.196195    2.161789
     23          1           0        2.938495    2.374208   -0.436925
     24          1           0        4.541527    1.920364   -2.257160
     25          1           0        5.847263   -0.203266   -2.286238
     26          1           0        5.532305   -1.864099   -0.450796
     27          1           0        3.917040   -1.410509    1.371878
     28          1           0        2.423947    1.688202    3.749836
     29          1           0        3.429098    2.507089    2.533305
     30          1           0        3.960729    0.965651    3.226564
     31          6           0        1.069779    1.551603    1.367785
     32          1           0        1.328596    2.583522    1.098562
     33          1           0        0.427341    1.612402    2.254888
     34          8           0       -0.267329   -0.325273    0.752195
     35          7           0       -0.769501   -1.173383   -0.320045
     36          6           0       -2.061026   -1.866605    0.084168
     37          8           0       -1.797916   -3.287776   -0.197749
     38          6           0       -0.722653   -3.333685   -1.169090
     39          6           0        0.242269   -2.238442   -0.687020
     40          6           0        1.168448   -1.753480   -1.809067
     41          6           0        1.047796   -2.751935    0.520931
     42          1           0       -0.281547   -4.330287   -1.132815
     43          1           0       -1.094687   -3.124965   -2.181467
     44          1           0        1.928204   -1.061466   -1.431164
     45          1           0        0.586603   -1.251648   -2.588840
     46          1           0        1.698213   -2.604137   -2.255186
     47          1           0        1.806030   -3.464923    0.176839
     48          1           0        0.392731   -3.250327    1.241731
     49          1           0        1.552375   -1.925217    1.020304
     50          6           0       -3.223492   -1.430664   -0.825140
     51          6           0       -3.859106   -0.093430   -0.414465
     52          6           0       -4.293436   -0.115683    1.061556
     53          6           0       -3.100023   -0.453424    1.974232
     54          6           0       -2.427542   -1.778338    1.571355
     55          1           0       -2.864561   -1.381936   -1.859047
     56          1           0       -3.978061   -2.225812   -0.766597
     57          1           0       -4.719937    0.110472   -1.062322
     58          1           0       -3.143947    0.717397   -0.570778
     59          1           0       -5.086537   -0.865425    1.199982
     60          1           0       -4.713947    0.857858    1.341714
     61          1           0       -3.428760   -0.524066    3.018301
     62          1           0       -2.361877    0.351834    1.916185
     63          1           0       -3.119245   -2.611322    1.750303
     64          1           0       -1.533362   -1.954971    2.175096
 ---------------------------------------------------------------------
 Rotational constants (GHZ):           0.2364198           0.1388666           0.1131164
 Leave Link  202 at Wed Jan  8 16:34:03 2025, MaxMem=  4026531840 cpu:               0.1 elap:               0.0
 (Enter /usr/local/intel/g16/l301.exe)
 Standard basis: def2TZVP (5D, 7F)
 Ernie: Thresh=  0.10000D-02 Tol=  0.10000D-05 Strict=F.
 There are  1254 symmetry adapted cartesian basis functions of A   symmetry.
 There are  1109 symmetry adapted basis functions of A   symmetry.
  1109 basis functions,  1759 primitive gaussians,  1254 cartesian basis functions
   107 alpha electrons      107 beta electrons
       nuclear repulsion energy      3039.9076873502 Hartrees.
 IExCor= 4336 DFT=T Ex+Corr=M062X ExCW=0 ScaHFX=  0.540000
 ScaDFX=  1.000000  1.000000  1.000000  1.000000 ScalE2=  1.000000  1.000000
 IRadAn=      5 IRanWt=     -1 IRanGd=            0 ICorTp=0 IEmpDi=  4
 NAtoms=   64 NActive=   64 NUniq=   64 SFac= 1.00D+00 NAtFMM=   60 NAOKFM=T Big=T
 Integral buffers will be    131072 words long.
 Raffenetti 2 integral format.
 Two-electron integral symmetry is turned on.
 Leave Link  301 at Wed Jan  8 16:34:03 2025, MaxMem=  4026531840 cpu:               1.4 elap:               0.1
 (Enter /usr/local/intel/g16/l302.exe)
 NPDir=0 NMtPBC=     1 NCelOv=     1 NCel=       1 NClECP=     1 NCelD=      1
         NCelK=      1 NCelE2=     1 NClLst=     1 CellRange=     0.0.
 One-electron integrals computed using PRISM.
 One-electron integral symmetry used in STVInt
   1 Symmetry operations used in ECPInt.
 ECPInt:  NShTT=  105570 NPrTT=  313188 LenC2=   91722 LenP2D=  189724.
 LDataN:  DoStor=T MaxTD1= 6 Len=  172
 NBasis=  1109 RedAO= T EigKep=  7.03D-06  NBF=  1109
 NBsUse=  1109 1.00D-06 EigRej= -1.00D+00 NBFU=  1109
 Precomputing XC quadrature grid using
 IXCGrd= 4 IRadAn=           5 IRanWt=          -1 IRanGd=           0 AccXCQ= 0.00D+00.
 Generated NRdTot=       0 NPtTot=           0 NUsed=           0 NTot=          32
 NSgBfM=  1235  1235  1235  1235  1235 MxSgAt=    64 MxSgA2=    64.
 Leave Link  302 at Wed Jan  8 16:34:08 2025, MaxMem=  4026531840 cpu:             100.7 elap:               5.0
 (Enter /usr/local/intel/g16/l303.exe)
 DipDrv:  MaxL=1.
 Leave Link  303 at Wed Jan  8 16:34:09 2025, MaxMem=  4026531840 cpu:               9.1 elap:               0.6
 (Enter /usr/local/intel/g16/l401.exe)
 ExpMin= 9.52D-02 ExpMax= 2.70D+04 ExpMxC= 9.22D+02 IAcc=3 IRadAn=         5 AccDes= 0.00D+00
 Harris functional with IExCor= 1009 and IRadAn=       5 diagonalized for initial guess.
 HarFok:  IExCor= 1009 AccDes= 0.00D+00 IRadAn=         5 IDoV= 1 UseB2=F ITyADJ=14
 ICtDFT=  3500011 ScaDFX=  1.000000  1.000000  1.000000  1.000000
 FoFCou: FMM=F IPFlag=           0 FMFlag=      100000 FMFlg1=        2001
         NFxFlg=           0 DoJE=T BraDBF=F KetDBF=T FulRan=T
         wScrn=  0.000000 ICntrl=       500 IOpCl=  0 I1Cent=   200000004 NGrid=           0
         NMat0=    1 NMatS0=      1 NMatT0=    0 NMatD0=    1 NMtDS0=    0 NMtDT0=    0
 Petite list used in FoFCou.
 Harris En= -1216.42797604784    
 JPrj=0 DoOrth=F DoCkMO=F.
 Leave Link  401 at Wed Jan  8 16:34:22 2025, MaxMem=  4026531840 cpu:             262.3 elap:              13.1
 (Enter /usr/local/intel/g16/l502.exe)
 Integral symmetry usage will be decided dynamically.
 Closed shell SCF:
 Using DIIS extrapolation, IDIIS=  1040.
 NGot=  4026531840 LenX=  4023349014 LenY=  4021775244
 Requested convergence on RMS density matrix=1.00D-08 within 128 cycles.
 Requested convergence on MAX density matrix=1.00D-06.
 Requested convergence on             energy=1.00D-06.
 No special actions if energy rises.
 Fock matrices will be formed incrementally for  20 cycles.
 Integral accuracy reduced to 1.0D-05 until final iterations.

 Cycle   1  Pass 0  IDiag  1:
 FoFJK:  IHMeth= 1 ICntrl=       0 DoSepK=F KAlg= 0 I1Cent=           0 FoldK=F
 IRaf= 920000000 NMat=       1 IRICut=       1 DoRegI=T DoRafI=F ISym2E= 0 IDoP0=0 IntGTp=1.
 FoFCou: FMM=T IPFlag=           0 FMFlag=      100000 FMFlg1=        2001
         NFxFlg=           0 DoJE=F BraDBF=F KetDBF=F FulRan=T
         wScrn=  0.000000 ICntrl=         0 IOpCl=  0 I1Cent=           0 NGrid=           0
         NMat0=    1 NMatS0=      1 NMatT0=    0 NMatD0=    1 NMtDS0=    0 NMtDT0=    0
 Symmetry not used in FoFCou.
 FMM levels:  10  Number of levels for PrismC:   9
 E= -1216.09196567546    
 DIIS: error= 1.38D-02 at cycle   1 NSaved=   1.
 NSaved= 1 IEnMin= 1 EnMin= -1216.09196567546     IErMin= 1 ErrMin= 1.38D-02
 ErrMax= 1.38D-02  0.00D+00 EMaxC= 1.00D-01 BMatC= 9.43D-01 BMatP= 9.43D-01
 IDIUse=3 WtCom= 8.62D-01 WtEn= 1.38D-01
 Coeff-Com:  0.100D+01
 Coeff-En:   0.100D+01
 Coeff:      0.100D+01
 Gap=     0.373 Goal=   None    Shift=    0.000
 GapD=    0.373 DampG=1.000 DampE=0.500 DampFc=0.5000 IDamp=-1.
 Damping current iteration by 5.00D-01
 RMSDP=8.23D+01 MaxDP=9.49D+03              OVMax= 9.94D-01

 Problem detected with inexpensive integrals.
 Switching to full accuracy and repeating last cycle.
 Cycle   2  Pass 1  IDiag  1:
 E= -1216.09177998751     Delta-E=        0.000185687946 Rises=F Damp=F
 DIIS: error= 1.38D-02 at cycle   1 NSaved=   1.
 NSaved= 1 IEnMin= 1 EnMin= -1216.09177998751     IErMin= 1 ErrMin= 1.38D-02
 ErrMax= 1.38D-02  0.00D+00 EMaxC= 1.00D-01 BMatC= 9.42D-01 BMatP= 9.42D-01
 IDIUse=3 WtCom= 8.62D-01 WtEn= 1.38D-01
 Coeff-Com:  0.100D+01
 Coeff-En:   0.100D+01
 Coeff:      0.100D+01
 Gap=     0.373 Goal=   None    Shift=    0.000
 GapD=    0.373 DampG=1.000 DampE=0.500 DampFc=0.5000 IDamp=-1.
 Damping current iteration by 5.00D-01
 RMSDP=1.90D-03 MaxDP=1.92D-01 DE= 1.86D-04 OVMax= 1.42D-01

 Cycle   3  Pass 1  IDiag  1:
 RMSU=  9.31D-04    CP:  9.63D-01
 E= -1216.51404634936     Delta-E=       -0.422266361844 Rises=F Damp=T
 DIIS: error= 3.20D-03 at cycle   2 NSaved=   2.
 NSaved= 2 IEnMin= 2 EnMin= -1216.51404634936     IErMin= 2 ErrMin= 3.20D-03
 ErrMax= 3.20D-03  0.00D+00 EMaxC= 1.00D-01 BMatC= 7.32D-02 BMatP= 9.42D-01
 IDIUse=3 WtCom= 9.68D-01 WtEn= 3.20D-02
 Coeff-Com: -0.145D+00 0.114D+01
 Coeff-En:   0.000D+00 0.100D+01
 Coeff:     -0.140D+00 0.114D+01
 Gap=     0.369 Goal=   None    Shift=    0.000
 GapD=    0.369 DampG=1.000 DampE=1.000 DampFc=1.0000 IDamp=-1.
 RMSDP=9.74D-04 MaxDP=6.96D-02 DE=-4.22D-01 OVMax= 8.18D-02

 Cycle   4  Pass 1  IDiag  1:
 RMSU=  9.26D-04    CP:  9.35D-01  1.29D+00
 E= -1216.90078704481     Delta-E=       -0.386740695456 Rises=F Damp=F
 DIIS: error= 3.60D-03 at cycle   3 NSaved=   3.
 NSaved= 3 IEnMin= 3 EnMin= -1216.90078704481     IErMin= 2 ErrMin= 3.20D-03
 ErrMax= 3.60D-03  0.00D+00 EMaxC= 1.00D-01 BMatC= 1.37D-02 BMatP= 7.32D-02
 IDIUse=3 WtCom= 9.64D-01 WtEn= 3.60D-02
 Coeff-Com: -0.984D-01 0.339D+00 0.760D+00
 Coeff-En:   0.000D+00 0.000D+00 0.100D+01
 Coeff:     -0.948D-01 0.326D+00 0.768D+00
 Gap=     0.301 Goal=   None    Shift=    0.000
 RMSDP=1.75D-04 MaxDP=1.76D-02 DE=-3.87D-01 OVMax= 1.94D-02

 Cycle   5  Pass 1  IDiag  1:
 RMSU=  1.56D-04    CP:  9.32D-01  1.33D+00  9.27D-01
 E= -1216.91155026310     Delta-E=       -0.010763218286 Rises=F Damp=F
 DIIS: error= 9.93D-04 at cycle   4 NSaved=   4.
 NSaved= 4 IEnMin= 4 EnMin= -1216.91155026310     IErMin= 4 ErrMin= 9.93D-04
 ErrMax= 9.93D-04  0.00D+00 EMaxC= 1.00D-01 BMatC= 2.20D-03 BMatP= 1.37D-02
 IDIUse=3 WtCom= 9.90D-01 WtEn= 9.93D-03
 Coeff-Com: -0.350D-01 0.909D-01 0.347D+00 0.597D+00
 Coeff-En:   0.000D+00 0.000D+00 0.000D+00 0.100D+01
 Coeff:     -0.346D-01 0.900D-01 0.344D+00 0.601D+00
 Gap=     0.290 Goal=   None    Shift=    0.000
 RMSDP=5.97D-05 MaxDP=5.24D-03 DE=-1.08D-02 OVMax= 8.55D-03

 Cycle   6  Pass 1  IDiag  1:
 RMSU=  4.09D-05    CP:  9.32D-01  1.34D+00  9.40D-01  7.34D-01
 E= -1216.91327171386     Delta-E=       -0.001721450759 Rises=F Damp=F
 DIIS: error= 2.15D-04 at cycle   5 NSaved=   5.
 NSaved= 5 IEnMin= 5 EnMin= -1216.91327171386     IErMin= 5 ErrMin= 2.15D-04
 ErrMax= 2.15D-04  0.00D+00 EMaxC= 1.00D-01 BMatC= 2.17D-04 BMatP= 2.20D-03
 IDIUse=3 WtCom= 9.98D-01 WtEn= 2.15D-03
 Coeff-Com: -0.918D-02 0.182D-01 0.107D+00 0.295D+00 0.589D+00
 Coeff-En:   0.000D+00 0.000D+00 0.000D+00 0.000D+00 0.100D+01
 Coeff:     -0.917D-02 0.181D-01 0.107D+00 0.295D+00 0.590D+00
 Gap=     0.291 Goal=   None    Shift=    0.000
 RMSDP=1.90D-05 MaxDP=1.63D-03 DE=-1.72D-03 OVMax= 2.75D-03

 Cycle   7  Pass 1  IDiag  1:
 RMSU=  1.51D-05    CP:  9.32D-01  1.33D+00  9.43D-01  7.58D-01  7.44D-01
 E= -1216.91344137487     Delta-E=       -0.000169661014 Rises=F Damp=F
 DIIS: error= 5.62D-05 at cycle   6 NSaved=   6.
 NSaved= 6 IEnMin= 6 EnMin= -1216.91344137487     IErMin= 6 ErrMin= 5.62D-05
 ErrMax= 5.62D-05  0.00D+00 EMaxC= 1.00D-01 BMatC= 1.42D-05 BMatP= 2.17D-04
 IDIUse=1 WtCom= 1.00D+00 WtEn= 0.00D+00
 Coeff-Com: -0.123D-02 0.916D-03 0.204D-01 0.866D-01 0.266D+00 0.627D+00
 Coeff:     -0.123D-02 0.916D-03 0.204D-01 0.866D-01 0.266D+00 0.627D+00
 Gap=     0.292 Goal=   None    Shift=    0.000
 RMSDP=5.31D-06 MaxDP=5.62D-04 DE=-1.70D-04 OVMax= 6.54D-04

 Cycle   8  Pass 1  IDiag  1:
 RMSU=  5.00D-06    CP:  9.32D-01  1.33D+00  9.43D-01  7.60D-01  7.79D-01
                    CP:  9.45D-01
 E= -1216.91345336272     Delta-E=       -0.000011987848 Rises=F Damp=F
 DIIS: error= 2.00D-05 at cycle   7 NSaved=   7.
 NSaved= 7 IEnMin= 7 EnMin= -1216.91345336272     IErMin= 7 ErrMin= 2.00D-05
 ErrMax= 2.00D-05  0.00D+00 EMaxC= 1.00D-01 BMatC= 1.25D-06 BMatP= 1.42D-05
 IDIUse=1 WtCom= 1.00D+00 WtEn= 0.00D+00
 Coeff-Com:  0.101D-02-0.255D-02-0.936D-02-0.151D-01 0.246D-02 0.230D+00
 Coeff-Com:  0.794D+00
 Coeff:      0.101D-02-0.255D-02-0.936D-02-0.151D-01 0.246D-02 0.230D+00
 Coeff:      0.794D+00
 Gap=     0.291 Goal=   None    Shift=    0.000
 RMSDP=2.16D-06 MaxDP=1.56D-04 DE=-1.20D-05 OVMax= 2.26D-04

 Cycle   9  Pass 1  IDiag  1:
 RMSU=  1.59D-06    CP:  9.32D-01  1.33D+00  9.43D-01  7.63D-01  7.99D-01
                    CP:  1.01D+00  9.01D-01
 E= -1216.91345446747     Delta-E=       -0.000001104747 Rises=F Damp=F
 DIIS: error= 6.96D-06 at cycle   8 NSaved=   8.
 NSaved= 8 IEnMin= 8 EnMin= -1216.91345446747     IErMin= 8 ErrMin= 6.96D-06
 ErrMax= 6.96D-06  0.00D+00 EMaxC= 1.00D-01 BMatC= 1.50D-07 BMatP= 1.25D-06
 IDIUse=1 WtCom= 1.00D+00 WtEn= 0.00D+00
 Coeff-Com:  0.525D-03-0.118D-02-0.561D-02-0.127D-01-0.172D-01 0.622D-01
 Coeff-Com:  0.356D+00 0.618D+00
 Coeff:      0.525D-03-0.118D-02-0.561D-02-0.127D-01-0.172D-01 0.622D-01
 Coeff:      0.356D+00 0.618D+00
 Gap=     0.292 Goal=   None    Shift=    0.000
 RMSDP=5.95D-07 MaxDP=3.21D-05 DE=-1.10D-06 OVMax= 9.38D-05

 Cycle  10  Pass 1  IDiag  1:
 RMSU=  4.44D-07    CP:  9.32D-01  1.33D+00  9.44D-01  7.63D-01  7.97D-01
                    CP:  1.02D+00  9.48D-01  8.79D-01
 E= -1216.91345459765     Delta-E=       -0.000000130185 Rises=F Damp=F
 DIIS: error= 1.59D-06 at cycle   9 NSaved=   9.
 NSaved= 9 IEnMin= 9 EnMin= -1216.91345459765     IErMin= 9 ErrMin= 1.59D-06
 ErrMax= 1.59D-06  0.00D+00 EMaxC= 1.00D-01 BMatC= 1.09D-08 BMatP= 1.50D-07
 IDIUse=1 WtCom= 1.00D+00 WtEn= 0.00D+00
 Coeff-Com:  0.899D-04-0.186D-03-0.116D-02-0.323D-02-0.663D-02 0.767D-03
 Coeff-Com:  0.480D-01 0.233D+00 0.729D+00
 Coeff:      0.899D-04-0.186D-03-0.116D-02-0.323D-02-0.663D-02 0.767D-03
 Coeff:      0.480D-01 0.233D+00 0.729D+00
 Gap=     0.292 Goal=   None    Shift=    0.000
 RMSDP=1.84D-07 MaxDP=1.67D-05 DE=-1.30D-07 OVMax= 2.54D-05

 Cycle  11  Pass 1  IDiag  1:
 RMSU=  1.53D-07    CP:  9.32D-01  1.33D+00  9.44D-01  7.63D-01  7.98D-01
                    CP:  1.02D+00  9.44D-01  9.30D-01  9.28D-01
 E= -1216.91345460765     Delta-E=       -0.000000010001 Rises=F Damp=F
 DIIS: error= 6.43D-07 at cycle  10 NSaved=  10.
 NSaved=10 IEnMin=10 EnMin= -1216.91345460765     IErMin=10 ErrMin= 6.43D-07
 ErrMax= 6.43D-07  0.00D+00 EMaxC= 1.00D-01 BMatC= 1.10D-09 BMatP= 1.09D-08
 IDIUse=1 WtCom= 1.00D+00 WtEn= 0.00D+00
 Coeff-Com: -0.957D-05 0.263D-04 0.167D-04-0.196D-03-0.109D-02-0.418D-02
 Coeff-Com: -0.113D-01 0.413D-01 0.284D+00 0.692D+00
 Coeff:     -0.957D-05 0.263D-04 0.167D-04-0.196D-03-0.109D-02-0.418D-02
 Coeff:     -0.113D-01 0.413D-01 0.284D+00 0.692D+00
 Gap=     0.292 Goal=   None    Shift=    0.000
 RMSDP=5.77D-08 MaxDP=5.53D-06 DE=-1.00D-08 OVMax= 1.08D-05

 Cycle  12  Pass 1  IDiag  1:
 RMSU=  4.81D-08    CP:  9.32D-01  1.33D+00  9.44D-01  7.63D-01  7.98D-01
                    CP:  1.02D+00  9.44D-01  9.37D-01  9.89D-01  1.02D+00
 E= -1216.91345460860     Delta-E=       -0.000000000950 Rises=F Damp=F
 DIIS: error= 2.57D-07 at cycle  11 NSaved=  11.
 NSaved=11 IEnMin=11 EnMin= -1216.91345460860     IErMin=11 ErrMin= 2.57D-07
 ErrMax= 2.57D-07  0.00D+00 EMaxC= 1.00D-01 BMatC= 1.87D-10 BMatP= 1.10D-09
 IDIUse=1 WtCom= 1.00D+00 WtEn= 0.00D+00
 Coeff-Com: -0.137D-04 0.313D-04 0.141D-03 0.294D-03 0.338D-03-0.159D-02
 Coeff-Com: -0.106D-01-0.117D-01 0.244D-01 0.309D+00 0.690D+00
 Coeff:     -0.137D-04 0.313D-04 0.141D-03 0.294D-03 0.338D-03-0.159D-02
 Coeff:     -0.106D-01-0.117D-01 0.244D-01 0.309D+00 0.690D+00
 Gap=     0.292 Goal=   None    Shift=    0.000
 RMSDP=2.30D-08 MaxDP=1.78D-06 DE=-9.50D-10 OVMax= 4.45D-06

 Cycle  13  Pass 1  IDiag  1:
 RMSU=  1.51D-08    CP:  9.32D-01  1.33D+00  9.44D-01  7.63D-01  7.98D-01
                    CP:  1.02D+00  9.44D-01  9.43D-01  9.93D-01  1.10D+00
                    CP:  9.81D-01
 E= -1216.91345460882     Delta-E=       -0.000000000222 Rises=F Damp=F
 DIIS: error= 7.65D-08 at cycle  12 NSaved=  12.
 NSaved=12 IEnMin=12 EnMin= -1216.91345460882     IErMin=12 ErrMin= 7.65D-08
 ErrMax= 7.65D-08  0.00D+00 EMaxC= 1.00D-01 BMatC= 1.45D-11 BMatP= 1.87D-10
 IDIUse=1 WtCom= 1.00D+00 WtEn= 0.00D+00
 Coeff-Com: -0.281D-05 0.635D-05 0.407D-04 0.109D-03 0.206D-03-0.350D-04
 Coeff-Com: -0.231D-02-0.816D-02-0.263D-01 0.208D-01 0.231D+00 0.784D+00
 Coeff:     -0.281D-05 0.635D-05 0.407D-04 0.109D-03 0.206D-03-0.350D-04
 Coeff:     -0.231D-02-0.816D-02-0.263D-01 0.208D-01 0.231D+00 0.784D+00
 Gap=     0.292 Goal=   None    Shift=    0.000
 RMSDP=7.82D-09 MaxDP=4.74D-07 DE=-2.22D-10 OVMax= 2.05D-06

 SCF Done:  E(RM062X) =  -1216.91345461     A.U. after   13 cycles
            NFock= 13  Conv=0.78D-08     -V/T= 2.0061
 KE= 1.209591996734D+03 PE=-8.907077614905D+03 EE= 3.440664476212D+03
 Leave Link  502 at Wed Jan  8 17:08:18 2025, MaxMem=  4026531840 cpu:           40657.4 elap:            2035.7
 (Enter /usr/local/intel/g16/l601.exe)
 Copying SCF densities to generalized density rwf, IOpCl= 0 IROHF=0.

 **********************************************************************

            Population analysis using the SCF Density.

 **********************************************************************

 Orbital symmetries:
       Occupied  (A) (A) (A) (A) (A) (A) (A) (A) (A) (A) (A) (A)
                 (A) (A) (A) (A) (A) (A) (A) (A) (A) (A) (A) (A)
                 (A) (A) (A) (A) (A) (A) (A) (A) (A) (A) (A) (A)
                 (A) (A) (A) (A) (A) (A) (A) (A) (A) (A) (A) (A)
                 (A) (A) (A) (A) (A) (A) (A) (A) (A) (A) (A) (A)
                 (A) (A) (A) (A) (A) (A) (A) (A) (A) (A) (A) (A)
                 (A) (A) (A) (A) (A) (A) (A) (A) (A) (A) (A) (A)
                 (A) (A) (A) (A) (A) (A) (A) (A) (A) (A) (A) (A)
                 (A) (A) (A) (A) (A) (A) (A) (A) (A) (A) (A)
       Virtual   (A) (A) (A) (A) (A) (A) (A) (A) (A) (A) (A) (A)
                 (A) (A) (A) (A) (A) (A) (A) (A) (A) (A) (A) (A)
                 (A) (A) (A) (A) (A) (A) (A) (A) (A) (A) (A) (A)
                 (A) (A) (A) (A) (A) (A) (A) (A) (A) (A) (A) (A)
                 (A) (A) (A) (A) (A) (A) (A) (A) (A) (A) (A) (A)
                 (A) (A) (A) (A) (A) (A) (A) (A) (A) (A) (A) (A)
                 (A) (A) (A) (A) (A) (A) (A) (A) (A) (A) (A) (A)
                 (A) (A) (A) (A) (A) (A) (A) (A) (A) (A) (A) (A)
                 (A) (A) (A) (A) (A) (A) (A) (A) (A) (A) (A) (A)
                 (A) (A) (A) (A) (A) (A) (A) (A) (A) (A) (A) (A)
                 (A) (A) (A) (A) (A) (A) (A) (A) (A) (A) (A) (A)
                 (A) (A) (A) (A) (A) (A) (A) (A) (A) (A) (A) (A)
                 (A) (A) (A) (A) (A) (A) (A) (A) (A) (A) (A) (A)
                 (A) (A) (A) (A) (A) (A) (A) (A) (A) (A) (A) (A)
                 (A) (A) (A) (A) (A) (A) (A) (A) (A) (A) (A) (A)
                 (A) (A) (A) (A) (A) (A) (A) (A) (A) (A) (A) (A)
                 (A) (A) (A) (A) (A) (A) (A) (A) (A) (A) (A) (A)
                 (A) (A) (A) (A) (A) (A) (A) (A) (A) (A) (A) (A)
                 (A) (A) (A) (A) (A) (A) (A) (A) (A) (A) (A) (A)
                 (A) (A) (A) (A) (A) (A) (A) (A) (A) (A) (A) (A)
                 (A) (A) (A) (A) (A) (A) (A) (A) (A) (A) (A) (A)
                 (A) (A) (A) (A) (A) (A) (A) (A) (A) (A) (A) (A)
                 (A) (A) (A) (A) (A) (A) (A) (A) (A) (A) (A) (A)
                 (A) (A) (A) (A) (A) (A) (A) (A) (A) (A) (A) (A)
                 (A) (A) (A) (A) (A) (A) (A) (A) (A) (A) (A) (A)
                 (A) (A) (A) (A) (A) (A) (A) (A) (A) (A) (A) (A)
                 (A) (A) (A) (A) (A) (A) (A) (A) (A) (A) (A) (A)
                 (A) (A) (A) (A) (A) (A) (A) (A) (A) (A) (A) (A)
                 (A) (A) (A) (A) (A) (A) (A) (A) (A) (A) (A) (A)
                 (A) (A) (A) (A) (A) (A) (A) (A) (A) (A) (A) (A)
                 (A) (A) (A) (A) (A) (A) (A) (A) (A) (A) (A) (A)
                 (A) (A) (A) (A) (A) (A) (A) (A) (A) (A) (A) (A)
                 (A) (A) (A) (A) (A) (A) (A) (A) (A) (A) (A) (A)
                 (A) (A) (A) (A) (A) (A) (A) (A) (A) (A) (A) (A)
                 (A) (A) (A) (A) (A) (A) (A) (A) (A) (A) (A) (A)
                 (A) (A) (A) (A) (A) (A) (A) (A) (A) (A) (A) (A)
                 (A) (A) (A) (A) (A) (A) (A) (A) (A) (A) (A) (A)
                 (A) (A) (A) (A) (A) (A) (A) (A) (A) (A) (A) (A)
                 (A) (A) (A) (A) (A) (A) (A) (A) (A) (A) (A) (A)
                 (A) (A) (A) (A) (A) (A) (A) (A) (A) (A) (A) (A)
                 (A) (A) (A) (A) (A) (A) (A) (A) (A) (A) (A) (A)
                 (A) (A) (A) (A) (A) (A) (A) (A) (A) (A) (A) (A)
                 (A) (A) (A) (A) (A) (A) (A) (A) (A) (A) (A) (A)
                 (A) (A) (A) (A) (A) (A) (A) (A) (A) (A) (A) (A)
                 (A) (A) (A) (A) (A) (A) (A) (A) (A) (A) (A) (A)
                 (A) (A) (A) (A) (A) (A) (A) (A) (A) (A) (A) (A)
                 (A) (A) (A) (A) (A) (A) (A) (A) (A) (A) (A) (A)
                 (A) (A) (A) (A) (A) (A) (A) (A) (A) (A) (A) (A)
                 (A) (A) (A) (A) (A) (A) (A) (A) (A) (A) (A) (A)
                 (A) (A) (A) (A) (A) (A) (A) (A) (A) (A) (A) (A)
                 (A) (A) (A) (A) (A) (A) (A) (A) (A) (A) (A) (A)
                 (A) (A) (A) (A) (A) (A) (A) (A) (A) (A) (A) (A)
                 (A) (A) (A) (A) (A) (A) (A) (A) (A) (A) (A) (A)
                 (A) (A) (A) (A) (A) (A) (A) (A) (A) (A) (A) (A)
                 (A) (A) (A) (A) (A) (A) (A) (A) (A) (A) (A) (A)
                 (A) (A) (A) (A) (A) (A) (A) (A) (A) (A) (A) (A)
                 (A) (A) (A) (A) (A) (A) (A) (A) (A) (A) (A) (A)
                 (A) (A) (A) (A) (A) (A) (A) (A) (A) (A) (A) (A)
                 (A) (A) (A) (A) (A) (A) (A) (A) (A) (A) (A) (A)
                 (A) (A) (A) (A) (A) (A) (A) (A) (A) (A) (A) (A)
                 (A) (A) (A) (A) (A) (A) (A) (A) (A) (A) (A) (A)
                 (A) (A) (A) (A) (A) (A) (A) (A) (A) (A) (A) (A)
                 (A) (A) (A) (A) (A) (A) (A) (A) (A) (A) (A) (A)
                 (A) (A) (A) (A) (A) (A) (A) (A) (A) (A) (A) (A)
                 (A) (A) (A) (A) (A) (A) (A) (A) (A) (A) (A) (A)
                 (A) (A) (A) (A) (A) (A) (A) (A) (A) (A) (A) (A)
                 (A) (A) (A) (A) (A) (A) (A) (A) (A) (A) (A) (A)
                 (A) (A) (A) (A) (A) (A) (A) (A) (A) (A) (A) (A)
                 (A) (A) (A) (A) (A) (A) (A) (A) (A) (A) (A) (A)
                 (A) (A) (A) (A) (A) (A) (A) (A) (A) (A) (A) (A)
                 (A) (A) (A) (A) (A) (A) (A) (A) (A) (A) (A) (A)
                 (A) (A) (A) (A) (A) (A) (A) (A) (A) (A) (A) (A)
                 (A) (A) (A) (A) (A) (A) (A) (A) (A) (A) (A) (A)
                 (A) (A) (A) (A) (A) (A) (A) (A) (A) (A) (A) (A)
                 (A) (A) (A) (A) (A) (A) (A) (A) (A) (A) (A) (A)
                 (A) (A) (A) (A) (A) (A) (A) (A) (A) (A) (A) (A)
                 (A) (A) (A) (A) (A) (A) (A) (A) (A) (A) (A) (A)
                 (A) (A) (A) (A) (A) (A) (A) (A) (A) (A) (A) (A)
                 (A) (A) (A) (A) (A) (A) (A) (A) (A) (A) (A) (A)
                 (A) (A) (A) (A) (A) (A) (A) (A) (A) (A) (A) (A)
                 (A) (A) (A) (A) (A) (A) (A) (A) (A) (A) (A) (A)
                 (A) (A) (A) (A) (A) (A) (A) (A) (A) (A) (A) (A)
                 (A) (A) (A) (A) (A) (A) (A) (A) (A) (A) (A) (A)
                 (A) (A) (A) (A) (A) (A)
 The electronic state is 1-A.
 Alpha  occ. eigenvalues --  -19.65260 -19.61917 -14.78480 -10.61437 -10.59342
 Alpha  occ. eigenvalues --  -10.57875 -10.57433 -10.55480 -10.55084 -10.55076
 Alpha  occ. eigenvalues --  -10.54888 -10.54844 -10.54827 -10.54780 -10.54708
 Alpha  occ. eigenvalues --  -10.54693 -10.54670 -10.54653 -10.54567 -10.54544
 Alpha  occ. eigenvalues --  -10.54152 -10.53060 -10.52278 -10.52087 -10.51809
 Alpha  occ. eigenvalues --  -10.51756 -10.51712 -10.51702 -10.51404  -1.17566
 Alpha  occ. eigenvalues --   -1.13768  -0.97023  -0.96238  -0.95001  -0.92040
 Alpha  occ. eigenvalues --   -0.90890  -0.87464  -0.85549  -0.84312  -0.84288
 Alpha  occ. eigenvalues --   -0.82877  -0.82661  -0.80752  -0.79141  -0.77595
 Alpha  occ. eigenvalues --   -0.75186  -0.72971  -0.70719  -0.69301  -0.68929
 Alpha  occ. eigenvalues --   -0.68618  -0.66577  -0.65904  -0.64542  -0.63507
 Alpha  occ. eigenvalues --   -0.61802  -0.59144  -0.58912  -0.56638  -0.55469
 Alpha  occ. eigenvalues --   -0.54709  -0.54355  -0.53727  -0.53230  -0.52341
 Alpha  occ. eigenvalues --   -0.51498  -0.51318  -0.50897  -0.50465  -0.50058
 Alpha  occ. eigenvalues --   -0.49153  -0.48862  -0.48633  -0.48508  -0.48275
 Alpha  occ. eigenvalues --   -0.46814  -0.46111  -0.45924  -0.45401  -0.44612
 Alpha  occ. eigenvalues --   -0.44508  -0.44114  -0.43947  -0.43450  -0.43336
 Alpha  occ. eigenvalues --   -0.42738  -0.42301  -0.41983  -0.41421  -0.41199
 Alpha  occ. eigenvalues --   -0.40134  -0.40081  -0.39021  -0.38865  -0.38378
 Alpha  occ. eigenvalues --   -0.38134  -0.37807  -0.37154  -0.36030  -0.35536
 Alpha  occ. eigenvalues --   -0.33549  -0.31813  -0.31035  -0.30951  -0.30462
 Alpha  occ. eigenvalues --   -0.29975  -0.28210
 Alpha virt. eigenvalues --    0.00942   0.01318   0.01561   0.01736   0.05751
 Alpha virt. eigenvalues --    0.06784   0.07340   0.07789   0.08268   0.08753
 Alpha virt. eigenvalues --    0.09240   0.09593   0.09867   0.10517   0.10951
 Alpha virt. eigenvalues --    0.11180   0.11585   0.12145   0.12323   0.12710
 Alpha virt. eigenvalues --    0.13085   0.13242   0.13651   0.14051   0.14337
 Alpha virt. eigenvalues --    0.14567   0.14801   0.15111   0.15617   0.15696
 Alpha virt. eigenvalues --    0.15956   0.16310   0.16672   0.16925   0.17097
 Alpha virt. eigenvalues --    0.17501   0.17890   0.18320   0.18545   0.18573
 Alpha virt. eigenvalues --    0.19459   0.19683   0.19736   0.20049   0.20328
 Alpha virt. eigenvalues --    0.20726   0.21150   0.21393   0.21574   0.22219
 Alpha virt. eigenvalues --    0.22429   0.22566   0.23145   0.23309   0.23727
 Alpha virt. eigenvalues --    0.24176   0.24578   0.24936   0.25299   0.25439
 Alpha virt. eigenvalues --    0.25704   0.26811   0.26903   0.27209   0.27322
 Alpha virt. eigenvalues --    0.27520   0.27929   0.28205   0.28558   0.28831
 Alpha virt. eigenvalues --    0.29030   0.29197   0.29813   0.30247   0.30501
 Alpha virt. eigenvalues --    0.30641   0.31036   0.31431   0.32151   0.32277
 Alpha virt. eigenvalues --    0.32805   0.33254   0.33628   0.33905   0.34636
 Alpha virt. eigenvalues --    0.34864   0.35396   0.35735   0.35958   0.36088
 Alpha virt. eigenvalues --    0.36666   0.37167   0.37598   0.37916   0.38486
 Alpha virt. eigenvalues --    0.38594   0.38863   0.39357   0.39499   0.39822
 Alpha virt. eigenvalues --    0.40211   0.40436   0.40518   0.41118   0.41502
 Alpha virt. eigenvalues --    0.41700   0.41887   0.42250   0.42691   0.42778
 Alpha virt. eigenvalues --    0.43057   0.43444   0.43768   0.43975   0.44110
 Alpha virt. eigenvalues --    0.44433   0.44655   0.44924   0.45339   0.45539
 Alpha virt. eigenvalues --    0.45875   0.46020   0.46466   0.46584   0.46898
 Alpha virt. eigenvalues --    0.47057   0.47317   0.47443   0.47895   0.48014
 Alpha virt. eigenvalues --    0.48405   0.48557   0.48962   0.49305   0.49502
 Alpha virt. eigenvalues --    0.49624   0.49759   0.50225   0.50288   0.50838
 Alpha virt. eigenvalues --    0.51109   0.51258   0.51573   0.51687   0.51909
 Alpha virt. eigenvalues --    0.52277   0.52394   0.52643   0.53013   0.53184
 Alpha virt. eigenvalues --    0.53352   0.53828   0.54182   0.54500   0.55011
 Alpha virt. eigenvalues --    0.55269   0.55342   0.55967   0.56411   0.56547
 Alpha virt. eigenvalues --    0.56877   0.57012   0.57605   0.57986   0.58552
 Alpha virt. eigenvalues --    0.58697   0.59487   0.59669   0.59935   0.60896
 Alpha virt. eigenvalues --    0.60980   0.61669   0.62187   0.62572   0.62938
 Alpha virt. eigenvalues --    0.64054   0.64719   0.64992   0.65228   0.65586
 Alpha virt. eigenvalues --    0.66626   0.67238   0.67712   0.67958   0.68138
 Alpha virt. eigenvalues --    0.68743   0.69318   0.69970   0.70053   0.70956
 Alpha virt. eigenvalues --    0.71277   0.71360   0.72420   0.72604   0.72847
 Alpha virt. eigenvalues --    0.73767   0.74011   0.74224   0.74889   0.75331
 Alpha virt. eigenvalues --    0.75748   0.76765   0.77039   0.77646   0.77980
 Alpha virt. eigenvalues --    0.78570   0.79191   0.79437   0.79750   0.79969
 Alpha virt. eigenvalues --    0.80953   0.81427   0.81686   0.81833   0.83241
 Alpha virt. eigenvalues --    0.83358   0.83757   0.85055   0.85207   0.85627
 Alpha virt. eigenvalues --    0.86019   0.86293   0.86870   0.87257   0.87670
 Alpha virt. eigenvalues --    0.87997   0.88591   0.88850   0.89376   0.89926
 Alpha virt. eigenvalues --    0.90158   0.90440   0.90683   0.91845   0.92436
 Alpha virt. eigenvalues --    0.93116   0.93552   0.94207   0.94496   0.94712
 Alpha virt. eigenvalues --    0.95203   0.95808   0.96541   0.96824   0.97459
 Alpha virt. eigenvalues --    0.97741   0.98237   0.98825   0.99614   1.00026
 Alpha virt. eigenvalues --    1.00657   1.01308   1.02357   1.02615   1.03043
 Alpha virt. eigenvalues --    1.03273   1.05000   1.05218   1.05930   1.06090
 Alpha virt. eigenvalues --    1.06627   1.07345   1.07756   1.08462   1.08839
 Alpha virt. eigenvalues --    1.09165   1.09580   1.09926   1.10538   1.11269
 Alpha virt. eigenvalues --    1.11757   1.12299   1.13187   1.13539   1.14123
 Alpha virt. eigenvalues --    1.14557   1.15117   1.15684   1.16561   1.16675
 Alpha virt. eigenvalues --    1.17151   1.17504   1.17990   1.18547   1.19236
[...]
 ,-0.00002065,0.00000280,-0.00000129,-0.00000227,-0.00001120,-0.0000011
 7,-0.00002809,-0.00000517,-0.00054282,-0.00102822,0.00037267,-0.000033
 08,-0.00002081,-0.00003158,-0.00004677,-0.00016112,0.00011981,0.000031
 43,-0.00003170,0.00000734,0.00000570,0.00001069,-0.00000832,-0.0000017
 3,-0.00000136,0.00000348,-0.00000338,0.00000089,0.00000219,-0.00000500
 ,0.00000282,0.00000156,0.00000226,-0.00000437,-0.00000403,0.00000663,0
 .00001035,0.00001569,-0.00000593,-0.00000738,0.00000106,-0.00001204,0.
 00000141,-0.00000455,0.00008333,-0.00003343,0.00003298,-0.00003721,-0.
 00004050,0.00001422,0.00014589,0.00013812,-0.00005121,-0.00183685,0.00
 102945,0.00147080,0.00012858,-0.00057738,-0.00103997,-0.00110110,-0.00
 004673,0.00109987,0.00060494,0.00001506,-0.00041776,-0.00028300,0.0000
 4580,0.00013628,0.00020981,-0.00001538,-0.00009400,0.00002300,0.000023
 57,0.00000399,-0.00006569,0.00000468,0.00003385,0.00004662,0.00001010,
 -0.00001505,0.00004618,0.00001570,-0.00006568,0.00003129,0.00000605,-0
 .00001610,0.00000003,-0.00000736,-0.00000546,-0.00001130,0.00000803,0.
 00000427,0.00000010,0.00003454,-0.00000733,-0.00004272,0.00000360,-0.0
 0002106,0.00006281,0.00000241,0.00000835,0.00009684,-0.00012157,-0.000
 27756,-0.00004590,0.00016357,-0.00040019,0.00630234,0.00662321,-0.0001
 9911,-0.13265662,-0.19308697,0.00790525,-0.01822503,-0.02371704,0.0014
 0967,-0.00007562,0.00003254,-0.00010139,0.00012857,0.00001307,0.000050
 41,0.00006057,0.00004271,-0.00017221,-0.00008798,-0.00010018,-0.000251
 23,0.00192835,0.00076511,0.00155596,-0.00037944,0.00068869,-0.00053103
 ,-0.00116357,-0.00190292,0.00071727,0.14384918,0.21495192,0.00004302,-
 0.00002507,0.00000854,0.00000934,0.00000862,0.00004531,-0.00018332,0.0
 0004670,-0.00008580,0.00026683,0.00065062,0.00002941,0.00021841,0.0002
 4417,-0.00035635,-0.00002272,-0.00003249,-0.00007871,0.00068550,0.0002
 9334,-0.00013563,0.00000785,-0.00004173,-0.00005261,-0.00000424,0.0000
 0377,0.00000633,-0.00000660,-0.00001641,-0.00000965,0.00000036,-0.0000
 0095,-0.00001237,0.00000101,0.00000362,-0.00000708,-0.00000409,-0.0000
 0172,0.00000321,0.00000360,-0.00001086,-0.00000784,-0.00003353,0.00002
 410,0.00002439,0.00000824,-0.00000482,0.00000999,0.00000613,-0.0000098
 6,0.00000952,0.00003039,-0.00003003,0.00000686,-0.00001774,0.00002082,
 0.00013654,0.00000154,0.00000987,0.00000893,-0.00007214,-0.00004864,0.
 00001330,-0.00001164,0.00001868,0.00001797,0.00000591,0.00001064,0.000
 00615,0.00000450,0.00000096,-0.00000067,0.00000075,0.00000161,0.000001
 21,0.00000148,0.00000135,0.00000066,0.00000194,0.00000417,0.00000304,0
 .00000013,-0.00001167,-0.00001981,0.00000585,0.00000065,-0.00000612,-0
 .00000449,-0.00000486,-0.00001219,-0.00005847,0.00009244,0.00021126,0.
 00001514,-0.00001092,-0.00005295,0.00000006,-0.00004514,-0.00004031,0.
 00068777,-0.00041266,0.00004447,0.00005500,-0.00007907,-0.00036659,-0.
 00103839,-0.00044394,0.00034946,0.00022455,0.00010582,-0.00009630,-0.0
 0007649,0.00001868,-0.00001763,0.00013235,-0.00009718,-0.00002286,-0.0
 0001169,0.00004817,-0.00000135,-0.00004537,0.00001696,0.00003754,0.000
 01338,0.00001715,0.00000528,0.00000898,-0.00000086,-0.00001439,0.00001
 413,-0.00000393,-0.00000202,0.00000219,-0.00000677,-0.00001438,-0.0000
 1871,0.00000929,0.00001459,-0.00000922,0.00002090,-0.00001583,0.000001
 50,0.00001689,-0.00000294,0.00001201,-0.00000375,0.00001047,0.00011886
 ,-0.00004362,-0.00017344,-0.00035023,-0.00101872,0.00132344,-0.0142687
 1,-0.01510597,0.00012091,0.00906765,0.01006915,-0.05079844,-0.00706331
 ,-0.00775929,0.00030802,0.00002961,-0.00002272,-0.00005913,0.00004289,
 0.00014028,0.00008626,0.00021756,0.00019524,0.00018542,0.00008224,0.00
 018739,-0.00040948,-0.00353912,0.00071731,-0.00189567,0.00086031,0.000
 17868,0.00068441,0.02062689,0.02326232,-0.00074015,-0.00761912,-0.0099
 0416,0.05124104,-0.00001020,0.00002065,-0.00002759,0.00002237,-0.00002
 782,-0.00001654,0.00003599,-0.00001993,0.00001033,0.00003583,0.0000416
 7,0.00006262,-0.00009558,-0.00000042,-0.00001822,0.00002999,-0.0000307
 5,0.00002025,0.00002873,0.00058301,0.00014967,0.00003760,0.00001641,-0
 .00001391,0.00000813,-0.00001656,-0.00002790,-0.00002111,-0.00000292,0
 .00000814,0.00000234,0.00000011,-0.00000999,-0.00000505,0.00000562,0.0
 0000196,-0.00000160,-0.00000467,0.00000122,-0.00000954,-0.00000574,0.0
 0000887,-0.00001561,0.00000024,0.00001667,0.00000549,-0.00000339,0.000
 00664,0.00000220,-0.00000350,-0.00000296,0.00000842,-0.00000865,0.0000
 0196,-0.00003529,-0.00001424,-0.00003670,-0.00000131,0.00000200,-0.000
 02505,-0.00003963,-0.00016828,0.00003510,0.00003443,-0.00001541,0.0000
 1703,0.00000607,0.00001199,-0.00000394,0.00000024,-0.00000057,0.000003
 66,-0.00000187,0.00000133,0.00000330,-0.00000194,0.00000361,0.00000263
 ,0.00000770,-0.00000313,0.00000179,0.00000565,0.00000345,0.00000422,-0
 .00000429,-0.00000820,-0.00000368,-0.00001088,0.00000079,-0.00000718,0
 .00004194,-0.00001850,0.00002581,-0.00002692,-0.00002756,-0.00001028,-
 0.00001968,0.00002924,-0.00001117,-0.00009970,-0.00018232,0.00065544,-
 0.00003413,-0.00065989,0.00168641,-0.00777376,-0.00665435,0.00166704,0
 .00076715,0.00018806,-0.00075003,-0.00043914,0.00019045,0.00000721,0.0
 0036548,-0.00047121,-0.00016167,-0.00002821,0.00020833,0.00005965,-0.0
 0006299,0.00021779,0.00000652,0.00002180,0.00001740,0.00001630,0.00014
 257,0.00001668,-0.00014971,0.00003289,0.00000845,-0.00002419,0.0000127
 2,-0.00001028,-0.00002252,-0.00007636,0.00001031,0.00004225,-0.0000757
 2,0.00001751,0.00005655,-0.00011800,-0.00017796,0.00000062,0.00010862,
 0.00001183,-0.00004350,-0.00021663,0.00007211,-0.00050409,0.00000731,-
 0.00007514,-0.00005382,0.00154379,0.00028188,0.00011839,0.00925722,0.0
 1275182,-0.00248223,-0.15432944,-0.12565809,0.02246217,0.00007490,0.00
 014335,0.00008556,0.00040485,0.00015517,-0.00033031,-0.00000070,-0.000
 01217,-0.00002819,-0.00004430,0.00003686,0.00007031,-0.00011262,-0.000
 40961,0.00023554,0.00011707,-0.00016994,0.00016625,0.00069144,-0.00083
 356,-0.00044750,-0.00069583,0.00315147,0.00073712,0.16640213,0.0000301
 8,-0.00001186,0.00003249,0.00001056,0.00001914,0.00002737,-0.00005672,
 0.00002342,0.00000514,-0.00005100,-0.00010172,-0.00008343,0.00002530,-
 0.00001653,-0.00000646,-0.00000076,0.00001541,-0.00001898,0.00009924,0
 .00006918,-0.00011527,0.00001459,-0.00002131,0.00001859,-0.00000123,0.
 00000384,-0.00002207,-0.00000671,-0.00000603,0.00000499,0.00000082,0.0
 0000149,-0.00000638,-0.00000292,0.00000293,0.00000195,-0.00000098,0.00
 000242,0.00000156,-0.00000604,-0.00000421,0.00000932,-0.00000788,0.000
 00862,-0.00000029,-0.00000205,-0.00000577,0.00000785,0.00000503,-0.000
 00611,0.00001182,-0.00000602,-0.00000333,-0.00000643,0.00005638,0.0000
 7462,0.00008634,-0.00000644,0.00000035,0.00000939,-0.00000819,-0.00000
 397,0.00002066,-0.00000255,-0.00000049,0.00000065,0.00000432,0.0000071
 6,-0.00000301,0.00000066,-0.00000056,0.00000137,-0.00000132,0.00000103
 ,0.00000150,-0.00000164,0.00000202,0.00000134,0.00000139,-0.00000049,-
 0.00000079,0.00000426,-0.00000059,0.00000661,0.00000156,-0.00000102,0.
 00000028,-0.00000892,0.00000083,-0.00000366,0.00001834,-0.00000918,-0.
 00002159,-0.00001225,-0.00000391,0.00000416,0.00002645,0.00001942,0.00
 003168,0.00002607,0.00028663,0.00011420,0.00072716,0.00035693,-0.00081
 095,-0.00179055,-0.00237815,0.00000038,0.00167854,0.00050230,-0.001459
 86,-0.00003248,0.00020880,-0.00010458,0.00023196,-0.00020004,-0.000044
 92,0.00005481,0.00008972,0.00004730,-0.00000260,-0.00000771,-0.0000085
 5,-0.00002819,-0.00000348,0.00002231,0.00004519,-0.00000254,0.00000867
 ,0.00002508,0.00000443,-0.00001149,-0.00000226,-0.00001240,0.00000091,
 -0.00001696,-0.00001166,0.00001113,0.00000354,0.00000681,-0.00001593,-
 0.00002504,-0.00000326,0.00003381,-0.00000529,-0.00000505,0.00001745,-
 0.00026414,-0.00004516,-0.00007324,0.00028464,-0.00011349,0.00001980,-
 0.00143504,0.00095263,0.00010459,-0.01736717,-0.02425440,0.00288304,-0
 .12770908,-0.19375521,0.03117887,0.00013818,0.00016522,0.00001169,0.00
 031127,0.00017950,0.00022643,0.00000142,-0.00001195,0.00007311,-0.0000
 1940,0.00007603,-0.00014980,0.00096632,0.00016515,0.00040342,0.0002001
 9,0.00047309,-0.00023962,-0.00007372,0.00124485,-0.00013913,0.00326507
 ,-0.00382119,-0.00188576,0.13679602,0.21509943,0.00002047,-0.00000327,
 0.00002354,-0.00002883,0.00001628,0.00001474,-0.00005594,0.00001999,0.
 00000034,-0.00001777,-0.00007675,-0.00006855,-0.00002183,-0.00003495,0
 .00002386,0.00000755,0.00001740,-0.00004196,0.00002431,-0.00037002,0.0
 0026633,-0.00000147,0.00001861,0.00000317,0.00000126,-0.00000632,-0.00
 000830,0.00000335,-0.00000017,0.00000568,0.00000023,-0.00000164,0.0000
 0672,-0.00000107,0.00000109,0.00000625,0.00000064,0.00000555,0.0000007
 9,-0.00000010,0.00000760,0.00000209,0.00000459,-0.00000434,-0.00000168
 ,-0.00000186,0.00000236,-0.00000293,0.00000048,0.00000454,0.00000532,-
 0.00000289,0.00001259,-0.00000178,0.00003035,0.00002971,0.00005010,-0.
 00000618,-0.00000654,0.00003481,-0.00004336,-0.00000500,0.00003161,0.0
 0001141,-0.00000130,-0.00000840,-0.00000090,-0.00000206,-0.00000094,-0
 .00000098,-0.00000044,-0.00000055,-0.00000131,-0.00000095,-0.00000069,
 -0.00000230,-0.00000036,-0.00000056,-0.00000080,-0.00000212,-0.0000020
 6,0.00000053,0.00000339,0.00000595,-0.00000104,-0.00000120,0.00000041,
 0.00000020,0.00000064,0.00000170,0.00000674,0.00007314,-0.00006486,0.0
 0001798,0.00001725,0.00003077,0.00001324,0.00002117,0.00002907,-0.0006
 8781,-0.00097099,0.00040528,0.00149294,-0.00127054,-0.00601786,0.02425
 348,0.02556237,-0.00757068,-0.00113578,0.00068260,0.00161771,0.0004652
 1,0.00010428,0.00019674,0.00001638,0.00141454,-0.00034277,0.00027448,-
 0.00050298,-0.00009139,0.00002141,-0.00003067,-0.00012557,-0.00008430,
 -0.00003660,0.00002513,-0.00013299,-0.00000560,0.00015926,-0.00001029,
 0.00000156,0.00001715,-0.00002734,-0.00001468,0.00005849,0.00017138,0.
 00000360,-0.00013030,0.00002094,-0.00003860,0.00007629,-0.00002497,-0.
 00008239,0.00006520,0.00000322,0.00001134,-0.00002590,-0.00020305,-0.0
 0015115,0.00088190,-0.00001634,-0.00014208,-0.00019890,0.00005503,0.00
 075524,0.00002167,-0.00686224,-0.00880183,0.00090992,0.02120473,0.0288
 8513,-0.05287268,-0.00010038,-0.00040975,0.00020227,-0.00055646,-0.000
 02047,-0.00076704,-0.00003125,0.00003914,0.00001952,0.00006825,-0.0001
 0094,-0.00003015,0.00008607,0.00019737,0.00014783,-0.00005439,0.000026
 58,-0.00011275,-0.00062100,0.00006274,0.00028485,0.00113088,-0.0021914
 7,0.00029734,-0.02807894,-0.02872805,0.05982038,0.00000113,0.00001405,
 0.00000928,0.00002152,-0.00001002,-0.00000374,0.00003598,-0.00000151,0
 .00001139,0.00001777,0.00003428,-0.00003780,-0.00005187,0.00006801,-0.
 00001906,0.00003050,0.00001834,0.00002109,-0.00013432,-0.00002067,0.00
 034183,-0.00000826,-0.00003551,0.00001434,0.00000517,0.00001081,0.0000
 0996,0.00000357,-0.00000028,0.00000248,0.00000248,-0.00000269,0.000001
 21,0.00000073,0.00000224,-0.00000135,-0.00000140,-0.00000065,0.0000038
 4,0.00000512,0.00000666,-0.00000660,0.00001058,0.00000304,-0.00001809,
 -0.00000316,-0.00000430,-0.00000112,-0.00000510,-0.00000705,0.00000170
 ,-0.00000607,-0.00001932,-0.00000226,-0.00002487,-0.00001620,-0.000006
 57,-0.00000131,-0.00000413,-0.00000259,-0.00001960,-0.00008175,0.00000
 696,0.00000760,0.00003266,-0.00003426,-0.00000324,-0.00000306,-0.00000
 054,-0.00000156,-0.00000094,-0.00000056,-0.00000038,-0.00000052,-0.000
 00085,0.00000128,-0.00000150,-0.00000215,-0.00000301,0.00000083,-0.000
 00135,-0.00000346,0.00000759,0.00000323,0.00000002,0.00000250,0.000008
 88,0.00000688,-0.00000027,0.00000266,0.00004157,0.00002456,-0.00001987
 ,-0.00000062,0.00000294,0.00000719,0.00000055,0.00001248,-0.00002109,-
 0.00108843,-0.00168238,0.00153618,0.00062911,-0.00076215,-0.00106083,0
 .00654133,-0.00100090,0.00548644,0.00073782,-0.00116030,-0.00059392,0.
 00000266,-0.00003357,-0.00009959,0.00006396,0.00024458,0.00001816,0.00
 006176,-0.00009067,-0.00002233,-0.00025133,0.00038713,0.00000789,0.000
 00738,-0.00001781,-0.00003178,0.00000494,0.00000296,0.00002520,-0.0000
 0383,0.00000120,-0.00000187,-0.00000559,-0.00000679,0.00001634,0.00002
 768,0.00000975,-0.00002539,-0.00008121,-0.00005547,0.00003371,-0.00083
 370,0.00058930,0.00072381,-0.00007611,-0.00009506,-0.00005641,0.000185
 79,0.00011002,0.00161850,0.00000329,-0.00006898,0.00021814,0.00015874,
 0.00258870,0.00215092,-0.01058999,0.00175633,-0.00676276,-0.23024858,0
 .04048566,-0.12303067,0.00033401,-0.00001434,0.00036553,0.00017098,0.0
 0005131,0.00017235,-0.00001035,-0.00003990,-0.00006103,-0.00000845,-0.
 00001651,-0.00006044,0.00038112,-0.00011720,0.00018932,-0.00056266,0.0
 0036786,-0.00076923,-0.00009395,-0.00015183,0.00034489,0.00057883,-0.0
 0013569,0.00020640,-0.01585506,0.00390096,-0.01059160,0.24989561,-0.00
 002073,-0.00001495,-0.00001328,-0.00004913,0.00001711,-0.00001950,-0.0
 0002694,-0.00001704,-0.00001055,-0.00002256,-0.00000002,0.00002573,0.0
 0009692,0.00000370,0.00000555,-0.00003932,0.00001724,-0.00000824,-0.00
 007911,-0.00056134,-0.00001601,-0.00005225,-0.00004760,0.00000339,-0.0
 0002076,0.00003358,0.00004837,0.00002839,-0.00000171,-0.00002085,-0.00
 000551,-0.00000076,0.00000859,0.00000938,-0.00000775,-0.00000832,0.000
 00135,-0.00000362,-0.00000570,0.00000731,0.00000347,-0.00002506,0.0000
 1038,0.00000834,-0.00001385,-0.00000280,0.00000911,-0.00000788,0.00000
 124,0.00001335,-0.00000694,0.00000122,0.00003217,0.00000576,0.00003378
 ,-0.00001434,-0.00000549,0.00000942,0.00000732,0.00001179,0.00005358,0
 .00013204,-0.00009272,-0.00006852,0.00004821,-0.00000891,-0.00000496,-
 0.00001235,0.00000995,0.00000239,0.00000099,-0.00000498,0.00000324,-0.
 00000129,-0.00000239,0.00000613,-0.00000365,-0.00000322,-0.00000165,0.
 00000700,0.00000810,-0.00000708,-0.00001490,-0.00001717,0.00000925,0.0
 0001214,0.00000074,0.00001300,-0.00000151,0.00000718,-0.00006937,0.000
 03443,0.00003367,0.00004613,0.00003249,-0.00001450,0.00002182,-0.00008
 570,-0.00003233,-0.00049709,-0.00025846,0.00041919,0.00026557,0.000018
 93,-0.00005212,0.00057659,-0.00175335,0.00135415,-0.00058594,0.0005396
 3,0.00006333,0.00036287,0.00007179,-0.00001505,-0.00028599,0.00019753,
 -0.00008915,0.00008611,-0.00007722,0.00004156,0.00028279,-0.00001814,-
 0.00010377,-0.00002236,-0.00002187,-0.00000556,-0.00005131,-0.00002892
 ,0.00004958,-0.00001340,0.00000757,0.00000363,-0.00001333,-0.00000370,
 0.00002573,0.00002890,-0.00001574,-0.00002513,0.00000115,-0.00006280,-
 0.00000008,0.00077173,-0.00028316,-0.00038136,-0.00014857,-0.00001407,
 0.00008045,-0.00030637,0.00032023,-0.00013598,-0.00006626,0.00013783,-
 0.00037964,0.00116229,-0.00484962,-0.00314709,0.02379057,-0.00538434,0
 .01641175,0.03823834,-0.05376318,0.02500615,0.00010601,0.00029652,0.00
 000444,0.00032609,0.00006048,0.00018442,-0.00006168,0.00003344,0.00006
 684,-0.00003433,0.00000508,0.00004805,0.00020909,0.00012587,-0.0000444
 0,0.00142738,-0.00038642,0.00100734,-0.00044218,0.00106370,-0.00019455
 ,-0.00061327,0.00084812,0.00064324,-0.01930081,0.00475936,-0.01398156,
 -0.04507681,0.05881072,0.00001233,0.00002640,0.00000915,0.00004284,-0.
 00002290,-0.00000491,0.00002741,-0.00000688,0.00001002,0.00002006,0.00
 000591,0.00002614,-0.00008482,-0.00002954,-0.00003421,0.00003914,-0.00
 001960,0.00002778,0.00008363,0.00045443,0.00028257,0.00001422,0.000018
 53,-0.00002019,-0.00000794,-0.00000358,-0.00000779,-0.00000791,0.00000
 268,-0.00000386,-0.00000256,0.00000026,0.00000038,0.00000197,-0.000003
 41,-0.00000042,0.00000144,-0.00001437,-0.00001001,-0.00001964,-0.00000
 192,-0.00001838,-0.00000958,-0.00000472,0.00002422,-0.00000192,-0.0000
 1648,0.00001396,-0.00000096,-0.00000862,0.00000008,0.00000561,-0.00000
 430,0.00000274,-0.00001351,0.00000489,0.00000502,-0.00002772,-0.000006
 84,-0.00001055,-0.00006766,-0.00014544,0.00004284,0.00003437,0.0000143
 7,0.00003864,0.00000401,0.00000324,0.00000006,-0.00000077,-0.00000216,
 0.00000340,-0.00000104,0.00000088,0.00000419,0.00000621,0.00000276,0.0
 0000070,0.00001855,-0.00000086,0.00002331,0.00000484,-0.00000572,-0.00
 000771,-0.00000433,-0.00000850,-0.00000784,-0.00000503,0.00000083,-0.0
 0000242,0.00002992,0.00004029,0.00002028,-0.00001111,-0.00002062,-0.00
 000786,0.00000696,0.00001339,-0.00001754,0.00059445,0.00016157,0.00049
 809,-0.00112876,-0.00116133,0.00153557,-0.02964428,0.00687263,-0.02092
 800,0.00110125,0.00040150,0.00263075,-0.00022043,-0.00012763,0.0000157
 8,0.00013875,0.00026454,-0.00053945,0.00010632,-0.00005322,0.00007088,
 0.00020027,0.00051503,-0.00028434,0.00009795,-0.00001186,-0.00003713,-
 0.00004619,0.00005014,0.00019187,0.00002303,0.00001206,-0.00001475,-0.
 00002465,-0.00004103,0.00006783,0.00000133,0.00000354,-0.00001709,-0.0
 0019306,-0.00008530,0.00023891,0.00050906,-0.00065794,0.00012508,0.000
 05696,-0.00003414,0.00000774,0.00371580,-0.00071530,-0.00557432,0.0003
 2287,-0.00053227,0.00000746,0.00088895,-0.00223963,-0.00044095,0.00957
 872,-0.00144123,0.00650630,-0.11905234,0.02528069,-0.12648363,-0.00155
 499,0.00067269,-0.00125744,0.00002885,-0.00011448,0.00015762,-0.000072
 85,0.00009032,0.00013600,-0.00003694,0.00008125,0.00005852,-0.00017823
 ,0.00002929,-0.00014339,0.00049757,-0.00040905,0.00049350,-0.00005129,
 0.00068182,0.00039780,-0.00036960,0.00041228,0.00025742,0.00483662,-0.
 00148196,0.00273907,0.12978784,-0.02668536,0.13920250\\-0.00000011,-0.
 00000057,-0.00000737,-0.00000200,-0.00000052,-0.00000754,-0.00000203,0
 .00000258,-0.00000355,0.00000293,0.00000050,0.00000079,0.00000076,-0.0
 0000758,-0.00000204,0.00000704,-0.00000479,-0.00000413,0.00000085,-0.0
 0000855,0.00000018,-0.00000430,-0.00000030,-0.00000319,-0.00000194,0.0
 0000471,0.00000473,-0.00000105,0.00000101,0.00000104,0.00000178,0.0000
 0145,0.00000007,0.00000409,-0.00000410,0.00000051,0.00000109,-0.000005
 54,0.00000413,-0.00000031,-0.00000257,0.00000765,0.00000081,0.00000432
 ,0.00000368,0.00000334,-0.00000335,-0.00000542,0.00000233,-0.00000014,
 -0.00000689,0.00000034,0.00000198,-0.00000566,-0.00000005,0.00000319,-
 0.00000296,0.00000239,-0.00000204,-0.00000290,-0.00000051,0.00000500,0
 .00000174,-0.00000168,0.00000125,0.00000068,-0.00000120,0.00000025,-0.
 00000014,0.00000192,-0.00000328,0.00000008,0.00000180,-0.00000386,0.00
 000349,0.00000025,-0.00000273,0.00000606,-0.00000247,-0.00000084,0.000
 00443,-0.00000126,0.00000382,-0.00000032,-0.00000127,0.00000031,-0.000
 00012,-0.00000310,0.00000298,0.00000148,0.00000220,0.00000049,-0.00000
 257,0.00000179,0.00000242,-0.00000156,-0.00000110,0.00000119,-0.000002
 21,0.00000583,0.00000157,-0.00001067,-0.00000187,-0.00000196,0.0000054
 0,0.00000446,0.00000680,-0.00000071,-0.00001114,0.00000349,0.00000170,
 -0.00000606,0.00000348,0.00000441,0.00000352,0.00000302,0.00000554,0.0
 0000713,-0.00000468,0.00000073,0.00000217,-0.00000243,0.00000440,0.000
 00246,-0.00000067,0.00000301,-0.00000093,-0.00000277,0.00000387,0.0000
 0055,-0.00000530,-0.00000054,0.00000248,-0.00000363,0.00000196,0.00000
 237,-0.00000105,0.00000245,-0.00000244,0.00000198,0.00000714,0.0000000
 9,0.00000067,0.00000253,-0.00000050,-0.00000032,0.00000359,-0.00000217
 ,-0.00000314,0.00000267,-0.00000034,-0.00000172,-0.00000354,-0.0000046
 6,0.00000403,-0.00000144,-0.00000519,0.00000335,0.00000076,0.00000246,
 -0.00000435,0.00000183,0.00000071,-0.00000201,-0.00000052,-0.00000091,
 0.00000104,-0.00000193,0.00000198,-0.00000048,-0.00000260,0.00000252,0
 .00000323,-0.00000382,-0.00000016,0.00000333,-0.00000170,-0.00000105,0
 .00000225,-0.00000525,-0.00000254,0.00000477,-0.00000304,-0.00000579,-
 0.00000087,-0.00000108,-0.00000134,0.00000417,0.00000148,-0.00000296,0
 .00000149,0.00000124\\\@
 The archive entry for this job was punched.


 IF YOU GIVE EVERYONE A PIECE OF YOUR MIND,
 PRETTY SOON IT WILL BE ALL GONE.
 Job cpu time:      10 days 16 hours 14 minutes 54.8 seconds.
 Elapsed time:       0 days 12 hours 48 minutes 57.3 seconds.
 File lengths (MBytes):  RWF=   5324 Int=      0 D2E=      0 Chk=    100 Scr=      1
 Normal termination of Gaussian 16 at Thu Jan  9 14:28:27 2025.
