 Entering Gaussian System, Link 0=g16
 Input=gjfs/data_set_12-St_dormant-40.gjf
 Output=gjfs/data_set_12-St_dormant-40.log
 Initial command:
 /usr/local/intel/g16/l1.exe "/scr/Gau-1163870.inp" -scrdir="/scr/"
 Entering Link 1 = /usr/local/intel/g16/l1.exe PID=   1163872.
  
 Copyright (c) 1988-2019, Gaussian, Inc.  All Rights Reserved.
  
 This is part of the Gaussian(R) 16 program.  It is based on
 the Gaussian(R) 09 system (copyright 2009, Gaussian, Inc.),
 the Gaussian(R) 03 system (copyright 2003, Gaussian, Inc.),
 the Gaussian(R) 98 system (copyright 1998, Gaussian, Inc.),
 the Gaussian(R) 94 system (copyright 1995, Gaussian, Inc.),
 the Gaussian 92(TM) system (copyright 1992, Gaussian, Inc.),
 the Gaussian 90(TM) system (copyright 1990, Gaussian, Inc.),
 the Gaussian 88(TM) system (copyright 1988, Gaussian, Inc.),
 the Gaussian 86(TM) system (copyright 1986, Carnegie Mellon
 University), and the Gaussian 82(TM) system (copyright 1983,
 Carnegie Mellon University). Gaussian is a federally registered
 trademark of Gaussian, Inc.
  
 This software contains proprietary and confidential information,
 including trade secrets, belonging to Gaussian, Inc.
  
 This software is provided under written license and may be
 used, copied, transmitted, or stored only in accord with that
 written license.
  
 The following legend is applicable only to US Government
 contracts under FAR:
  
                    RESTRICTED RIGHTS LEGEND
  
 Use, reproduction and disclosure by the US Government is
 subject to restrictions as set forth in subparagraphs (a)
 and (c) of the Commercial Computer Software - Restricted
 Rights clause in FAR 52.227-19.
  
 Gaussian, Inc.
 340 Quinnipiac St., Bldg. 40, Wallingford CT 06492
  
  
 ---------------------------------------------------------------
 Warning -- This program may not be used in any manner that
 competes with the business of Gaussian, Inc. or will provide
 assistance to any competitor of Gaussian, Inc.  The licensee
 of this program is prohibited from giving any competitor of
 Gaussian, Inc. access to this program.  By using this program,
 the user acknowledges that Gaussian, Inc. is engaged in the
 business of creating and licensing software in the field of
 computational chemistry and represents and warrants to the
 licensee that it is not a competitor of Gaussian, Inc. and that
 it will not use this program in any manner prohibited above.
 ---------------------------------------------------------------
  

 Cite this work as:
 Gaussian 16, Revision C.01,
 M. J. Frisch, G. W. Trucks, H. B. Schlegel, G. E. Scuseria, 
 M. A. Robb, J. R. Cheeseman, G. Scalmani, V. Barone, 
 G. A. Petersson, H. Nakatsuji, X. Li, M. Caricato, A. V. Marenich, 
 J. Bloino, B. G. Janesko, R. Gomperts, B. Mennucci, H. P. Hratchian, 
 J. V. Ortiz, A. F. Izmaylov, J. L. Sonnenberg, D. Williams-Young, 
 F. Ding, F. Lipparini, F. Egidi, J. Goings, B. Peng, A. Petrone, 
 T. Henderson, D. Ranasinghe, V. G. Zakrzewski, J. Gao, N. Rega, 
 G. Zheng, W. Liang, M. Hada, M. Ehara, K. Toyota, R. Fukuda, 
 J. Hasegawa, M. Ishida, T. Nakajima, Y. Honda, O. Kitao, H. Nakai, 
 T. Vreven, K. Throssell, J. A. Montgomery, Jr., J. E. Peralta, 
 F. Ogliaro, M. J. Bearpark, J. J. Heyd, E. N. Brothers, K. N. Kudin, 
 V. N. Staroverov, T. A. Keith, R. Kobayashi, J. Normand, 
 K. Raghavachari, A. P. Rendell, J. C. Burant, S. S. Iyengar, 
 J. Tomasi, M. Cossi, J. M. Millam, M. Klene, C. Adamo, R. Cammi, 
 J. W. Ochterski, R. L. Martin, K. Morokuma, O. Farkas, 
 J. B. Foresman, and D. J. Fox, Gaussian, Inc., Wallingford CT, 2019.
 
 ******************************************
 Gaussian 16:  ES64L-G16RevC.01  3-Jul-2019
                 9-Jan-2025 
 ******************************************
 %nprocshared=20
 Will use up to   20 processors via shared memory.
 %mem=30GB
 %chk=outputs/data_set_12-St_dormant-40.chk
 ----------------------------------
 #p M062X/DEF2TZVP opt freq pop=NBO
 ----------------------------------
 1/18=20,19=15,26=3,38=1/1,3;
 2/9=110,12=2,17=6,18=5,40=1/2;
 3/5=44,7=101,11=2,25=1,30=1,71=1,74=-55/1,2,3;
 4//1;
 5/5=2,38=5/2;
 6/7=2,8=2,9=2,10=2,28=1,40=1/1,7;
 7//1,2,3,16;
 1/18=20,19=15,26=3/3(2);
 2/9=110/2;
 99//99;
 2/9=110/2;
 3/5=44,7=101,11=2,25=1,30=1,71=1,74=-55/1,2,3;
 4/5=5,16=3,69=1/1;
 5/5=2,38=5/2;
 7//1,2,3,16;
 1/18=20,19=15,26=3/3(-5);
 2/9=110/2;
 6/7=2,8=2,9=2,10=2,19=2,28=1,40=1/1,7;
 99/9=1/99;
 Leave Link    1 at Thu Jan  9 01:23:01 2025, MaxMem=  4026531840 cpu:               1.1 elap:               0.1
 (Enter /usr/local/intel/g16/l101.exe)
 -------------------------
 data_set_12-St_dormant-40
 -------------------------
 Symbolic Z-matrix:
 Charge =  0 Multiplicity = 1
 C                    -1.9724    3.6329   -1.7449 
 C                    -2.78886   4.16121  -0.73433 
 C                    -2.61008   3.74077   0.59436 
 C                    -1.62173   2.79943   0.90592 
 C                    -0.80052   2.26281  -0.10249 
 C                    -0.98567   2.68737  -1.42651 
 C                     0.25132   1.22047   0.21873 
 C                     2.31241   0.64878   1.69166 
 C                     3.16482   0.17722   0.51989 
 C                     3.51914   1.02813  -0.54344 
 C                     4.33328   0.57222  -1.59067 
 C                     4.8171   -0.74478  -1.58857 
 C                     4.48457  -1.59836  -0.5255 
 C                     3.66654  -1.13745   0.51457 
 C                     3.22376   1.24355   2.79116 
 H                    -2.10867   3.94904  -2.77392 
 H                    -3.55596   4.88918  -0.97711 
 H                    -3.24149   4.1433    1.37969 
 H                    -1.50055   2.46799   1.93299 
 H                    -0.36807   2.26231  -2.21233 
 H                     0.80573   0.98176  -0.69461 
 H                     1.8053   -0.22948   2.10786 
 H                     3.15967   2.05293  -0.56246 
 H                     4.58972   1.24243  -2.40504 
 H                     5.44484  -1.09863  -2.39966 
 H                     4.85527  -2.61815  -0.51001 
 H                     3.40895  -1.80683   1.33144 
 H                     2.63399   1.54075   3.66623 
 H                     3.75284   2.12769   2.41534 
 H                     3.97423   0.51416   3.11297 
 C                     1.21857   1.67136   1.31992 
 H                     1.66996   2.62119   1.00463 
 H                     0.64691   1.891     2.22978 
 O                    -0.35196  -0.02388   0.71486 
 N                    -1.08004  -0.70343  -0.33945 
 C                    -0.37786  -1.96326  -0.74617 
 C                    -1.54676  -2.72183  -1.40277 
 C                    -2.77761  -2.41956  -0.50777 
 C                    -2.51752  -0.9685    0.05234 
 C                    -2.76882  -0.84172   1.56432 
 C                    -3.42193   0.01544  -0.714 
 H                    -3.69139  -2.41231  -1.10928 
 C                    -2.97805  -3.44703   0.52718 
 H                    -3.80005  -1.1345    1.79051 
 H                    -2.62273   0.1942    1.87684 
 H                    -2.09169  -1.47062   2.14748 
 H                    -3.20075   1.04424  -0.42156 
 H                    -4.47871  -0.18725  -0.50011 
 H                    -3.25026  -0.07021  -1.79232 
 C                     0.71984  -1.64097  -1.77087 
 C                     0.22543  -2.74293   0.44209 
 H                     0.31411  -1.01466  -2.57218 
 H                     1.11757  -2.56472  -2.20736 
 H                    -0.5263   -3.02945   1.18292 
 H                     0.97689  -2.12747   0.94051 
 N                    -3.16426  -4.28238   1.33337 
 H                    -1.34101  -3.79051  -1.49218 
 H                    -1.73031  -2.31877  -2.4038 
 H                     1.55514  -1.1135   -1.30072 
 H                     0.70876  -3.655     0.07442 
 
 ITRead=  0  0  0  0  0  0  0  0  0  0  0  0  0  0  0  0  0  0  0  0
 ITRead=  0  0  0  0  0  0  0  0  0  0  0  0  0  0  0  0  0  0  0  0
 ITRead=  0  0  0  0  0  0  0  0  0  0  0  0  0  0  0  0  0  0  0  0
 MicOpt= -1 -1 -1 -1 -1 -1 -1 -1 -1 -1 -1 -1 -1 -1 -1 -1 -1 -1 -1 -1
 MicOpt= -1 -1 -1 -1 -1 -1 -1 -1 -1 -1 -1 -1 -1 -1 -1 -1 -1 -1 -1 -1
 MicOpt= -1 -1 -1 -1 -1 -1 -1 -1 -1 -1 -1 -1 -1 -1 -1 -1 -1 -1 -1 -1
 NAtoms=     60 NQM=       60 NQMF=       0 NMMI=      0 NMMIF=      0
                NMic=       0 NMicF=      0.
                    Isotopes and Nuclear Properties:
 (Nuclear quadrupole moments (NQMom) in fm**2, nuclear magnetic moments (NMagM)
  in nuclear magnetons)

  Atom         1           2           3           4           5           6           7           8           9          10
 IAtWgt=          12          12          12          12          12          12          12          12          12          12
 AtmWgt=  12.0000000  12.0000000  12.0000000  12.0000000  12.0000000  12.0000000  12.0000000  12.0000000  12.0000000  12.0000000
 NucSpn=           0           0           0           0           0           0           0           0           0           0
 AtZEff=  -0.0000000  -0.0000000  -0.0000000  -0.0000000  -0.0000000  -0.0000000  -0.0000000  -0.0000000  -0.0000000  -0.0000000
 NQMom=    0.0000000   0.0000000   0.0000000   0.0000000   0.0000000   0.0000000   0.0000000   0.0000000   0.0000000   0.0000000
 NMagM=    0.0000000   0.0000000   0.0000000   0.0000000   0.0000000   0.0000000   0.0000000   0.0000000   0.0000000   0.0000000
 AtZNuc=   6.0000000   6.0000000   6.0000000   6.0000000   6.0000000   6.0000000   6.0000000   6.0000000   6.0000000   6.0000000

  Atom        11          12          13          14          15          16          17          18          19          20
 IAtWgt=          12          12          12          12          12           1           1           1           1           1
 AtmWgt=  12.0000000  12.0000000  12.0000000  12.0000000  12.0000000   1.0078250   1.0078250   1.0078250   1.0078250   1.0078250
 NucSpn=           0           0           0           0           0           1           1           1           1           1
 AtZEff=  -0.0000000  -0.0000000  -0.0000000  -0.0000000  -0.0000000  -0.0000000  -0.0000000  -0.0000000  -0.0000000  -0.0000000
 NQMom=    0.0000000   0.0000000   0.0000000   0.0000000   0.0000000   0.0000000   0.0000000   0.0000000   0.0000000   0.0000000
 NMagM=    0.0000000   0.0000000   0.0000000   0.0000000   0.0000000   2.7928460   2.7928460   2.7928460   2.7928460   2.7928460
 AtZNuc=   6.0000000   6.0000000   6.0000000   6.0000000   6.0000000   1.0000000   1.0000000   1.0000000   1.0000000   1.0000000

  Atom        21          22          23          24          25          26          27          28          29          30
 IAtWgt=           1           1           1           1           1           1           1           1           1           1
 AtmWgt=   1.0078250   1.0078250   1.0078250   1.0078250   1.0078250   1.0078250   1.0078250   1.0078250   1.0078250   1.0078250
 NucSpn=           1           1           1           1           1           1           1           1           1           1
 AtZEff=  -0.0000000  -0.0000000  -0.0000000  -0.0000000  -0.0000000  -0.0000000  -0.0000000  -0.0000000  -0.0000000  -0.0000000
 NQMom=    0.0000000   0.0000000   0.0000000   0.0000000   0.0000000   0.0000000   0.0000000   0.0000000   0.0000000   0.0000000
 NMagM=    2.7928460   2.7928460   2.7928460   2.7928460   2.7928460   2.7928460   2.7928460   2.7928460   2.7928460   2.7928460
 AtZNuc=   1.0000000   1.0000000   1.0000000   1.0000000   1.0000000   1.0000000   1.0000000   1.0000000   1.0000000   1.0000000

  Atom        31          32          33          34          35          36          37          38          39          40
 IAtWgt=          12           1           1          16          14          12          12          12          12          12
 AtmWgt=  12.0000000   1.0078250   1.0078250  15.9949146  14.0030740  12.0000000  12.0000000  12.0000000  12.0000000  12.0000000
 NucSpn=           0           1           1           0           2           0           0           0           0           0
 AtZEff=  -0.0000000  -0.0000000  -0.0000000  -0.0000000  -0.0000000  -0.0000000  -0.0000000  -0.0000000  -0.0000000  -0.0000000
 NQMom=    0.0000000   0.0000000   0.0000000   0.0000000   2.0440000   0.0000000   0.0000000   0.0000000   0.0000000   0.0000000
 NMagM=    0.0000000   2.7928460   2.7928460   0.0000000   0.4037610   0.0000000   0.0000000   0.0000000   0.0000000   0.0000000
 AtZNuc=   6.0000000   1.0000000   1.0000000   8.0000000   7.0000000   6.0000000   6.0000000   6.0000000   6.0000000   6.0000000

  Atom        41          42          43          44          45          46          47          48          49          50
 IAtWgt=          12           1          12           1           1           1           1           1           1          12
 AtmWgt=  12.0000000   1.0078250  12.0000000   1.0078250   1.0078250   1.0078250   1.0078250   1.0078250   1.0078250  12.0000000
 NucSpn=           0           1           0           1           1           1           1           1           1           0
 AtZEff=  -0.0000000  -0.0000000  -0.0000000  -0.0000000  -0.0000000  -0.0000000  -0.0000000  -0.0000000  -0.0000000  -0.0000000
 NQMom=    0.0000000   0.0000000   0.0000000   0.0000000   0.0000000   0.0000000   0.0000000   0.0000000   0.0000000   0.0000000
 NMagM=    0.0000000   2.7928460   0.0000000   2.7928460   2.7928460   2.7928460   2.7928460   2.7928460   2.7928460   0.0000000
 AtZNuc=   6.0000000   1.0000000   6.0000000   1.0000000   1.0000000   1.0000000   1.0000000   1.0000000   1.0000000   6.0000000

  Atom        51          52          53          54          55          56          57          58          59          60
 IAtWgt=          12           1           1           1           1          14           1           1           1           1
 AtmWgt=  12.0000000   1.0078250   1.0078250   1.0078250   1.0078250  14.0030740   1.0078250   1.0078250   1.0078250   1.0078250
 NucSpn=           0           1           1           1           1           2           1           1           1           1
 AtZEff=  -0.0000000  -0.0000000  -0.0000000  -0.0000000  -0.0000000  -0.0000000  -0.0000000  -0.0000000  -0.0000000  -0.0000000
 NQMom=    0.0000000   0.0000000   0.0000000   0.0000000   0.0000000   2.0440000   0.0000000   0.0000000   0.0000000   0.0000000
 NMagM=    0.0000000   2.7928460   2.7928460   2.7928460   2.7928460   0.4037610   2.7928460   2.7928460   2.7928460   2.7928460
 AtZNuc=   6.0000000   1.0000000   1.0000000   1.0000000   1.0000000   7.0000000   1.0000000   1.0000000   1.0000000   1.0000000
 Leave Link  101 at Thu Jan  9 01:23:02 2025, MaxMem=  4026531840 cpu:              25.3 elap:               1.3
 (Enter /usr/local/intel/g16/l103.exe)

 GradGradGradGradGradGradGradGradGradGradGradGradGradGradGradGradGradGrad
 Berny optimization.
 Initialization pass.
                           ----------------------------
                           !    Initial Parameters    !
                           ! (Angstroms and Degrees)  !
 --------------------------                            --------------------------
 ! Name  Definition              Value          Derivative Info.                !
 --------------------------------------------------------------------------------
 ! R1    R(1,2)                  1.4025         estimate D2E/DX2                !
 ! R2    R(1,6)                  1.4032         estimate D2E/DX2                !
 ! R3    R(1,16)                 1.0851         estimate D2E/DX2                !
 ! R4    R(2,3)                  1.405          estimate D2E/DX2                !
 ! R5    R(2,17)                 1.0851         estimate D2E/DX2                !
 ! R6    R(3,4)                  1.4            estimate D2E/DX2                !
 ! R7    R(3,18)                 1.0851         estimate D2E/DX2                !
 ! R8    R(4,5)                  1.4068         estimate D2E/DX2                !
 ! R9    R(4,19)                 1.086          estimate D2E/DX2                !
 ! R10   R(5,6)                  1.4027         estimate D2E/DX2                !
 ! R11   R(5,7)                  1.5153         estimate D2E/DX2                !
 ! R12   R(6,20)                 1.0861         estimate D2E/DX2                !
 ! R13   R(7,21)                 1.0948         estimate D2E/DX2                !
 ! R14   R(7,31)                 1.5335         estimate D2E/DX2                !
 ! R15   R(7,34)                 1.4692         estimate D2E/DX2                !
 ! R16   R(8,9)                  1.5238         estimate D2E/DX2                !
 ! R17   R(8,15)                 1.547          estimate D2E/DX2                !
 ! R18   R(8,22)                 1.0962         estimate D2E/DX2                !
 ! R19   R(8,31)                 1.5428         estimate D2E/DX2                !
 ! R20   R(9,10)                 1.4072         estimate D2E/DX2                !
 ! R21   R(9,14)                 1.4072         estimate D2E/DX2                !
 ! R22   R(10,11)                1.4026         estimate D2E/DX2                !
 ! R23   R(10,23)                1.0862         estimate D2E/DX2                !
 ! R24   R(11,12)                1.4031         estimate D2E/DX2                !
 ! R25   R(11,24)                1.0854         estimate D2E/DX2                !
 ! R26   R(12,13)                1.4033         estimate D2E/DX2                !
 ! R27   R(12,25)                1.085          estimate D2E/DX2                !
 ! R28   R(13,14)                1.4012         estimate D2E/DX2                !
 ! R29   R(13,26)                1.0852         estimate D2E/DX2                !
 ! R30   R(14,27)                1.0871         estimate D2E/DX2                !
 ! R31   R(15,28)                1.0963         estimate D2E/DX2                !
 ! R32   R(15,29)                1.0967         estimate D2E/DX2                !
 ! R33   R(15,30)                1.0949         estimate D2E/DX2                !
 ! R34   R(31,32)                1.0979         estimate D2E/DX2                !
 ! R35   R(31,33)                1.0968         estimate D2E/DX2                !
 ! R36   R(34,35)                1.4503         estimate D2E/DX2                !
 ! R37   R(35,36)                1.4986         estimate D2E/DX2                !
 ! R38   R(35,39)                1.5133         estimate D2E/DX2                !
 ! R39   R(36,37)                1.5404         estimate D2E/DX2                !
 ! R40   R(36,50)                1.5359         estimate D2E/DX2                !
 ! R41   R(36,51)                1.544          estimate D2E/DX2                !
 ! R42   R(37,38)                1.5516         estimate D2E/DX2                !
 ! R43   R(37,57)                1.092          estimate D2E/DX2                !
 ! R44   R(37,58)                1.0946         estimate D2E/DX2                !
 ! R45   R(38,39)                1.577          estimate D2E/DX2                !
 ! R46   R(38,42)                1.094          estimate D2E/DX2                !
 ! R47   R(38,43)                1.4721         estimate D2E/DX2                !
 ! R48   R(39,40)                1.5379         estimate D2E/DX2                !
 ! R49   R(39,41)                1.5406         estimate D2E/DX2                !
 ! R50   R(40,44)                1.0956         estimate D2E/DX2                !
 ! R51   R(40,45)                1.0919         estimate D2E/DX2                !
 ! R52   R(40,46)                1.0927         estimate D2E/DX2                !
 ! R53   R(41,47)                1.0922         estimate D2E/DX2                !
 ! R54   R(41,48)                1.0971         estimate D2E/DX2                !
 ! R55   R(41,49)                1.0953         estimate D2E/DX2                !
 ! R56   R(43,56)                1.1758         estimate D2E/DX2                !
 ! R57   R(50,52)                1.095          estimate D2E/DX2                !
 ! R58   R(50,53)                1.0964         estimate D2E/DX2                !
 ! R59   R(50,59)                1.0941         estimate D2E/DX2                !
 ! R60   R(51,54)                1.0936         estimate D2E/DX2                !
 ! R61   R(51,55)                1.0917         estimate D2E/DX2                !
 ! R62   R(51,60)                1.0958         estimate D2E/DX2                !
 ! A1    A(2,1,6)              119.9801         estimate D2E/DX2                !
 ! A2    A(2,1,16)             120.0306         estimate D2E/DX2                !
 ! A3    A(6,1,16)             119.9875         estimate D2E/DX2                !
 ! A4    A(1,2,3)              119.6437         estimate D2E/DX2                !
 ! A5    A(1,2,17)             120.2037         estimate D2E/DX2                !
 ! A6    A(3,2,17)             120.1524         estimate D2E/DX2                !
 ! A7    A(2,3,4)              120.0973         estimate D2E/DX2                !
 ! A8    A(2,3,18)             119.9582         estimate D2E/DX2                !
 ! A9    A(4,3,18)             119.944          estimate D2E/DX2                !
 ! A10   A(3,4,5)              120.5999         estimate D2E/DX2                !
 ! A11   A(3,4,19)             119.6329         estimate D2E/DX2                !
 ! A12   A(5,4,19)             119.7582         estimate D2E/DX2                !
 ! A13   A(4,5,6)              118.952          estimate D2E/DX2                !
 ! A14   A(4,5,7)              121.04           estimate D2E/DX2                !
 ! A15   A(6,5,7)              119.9955         estimate D2E/DX2                !
 ! A16   A(1,6,5)              120.7267         estimate D2E/DX2                !
 ! A17   A(1,6,20)             119.9605         estimate D2E/DX2                !
 ! A18   A(5,6,20)             119.3028         estimate D2E/DX2                !
 ! A19   A(5,7,21)             108.9457         estimate D2E/DX2                !
 ! A20   A(5,7,31)             112.8189         estimate D2E/DX2                !
 ! A21   A(5,7,34)             111.6645         estimate D2E/DX2                !
 ! A22   A(21,7,31)            110.1076         estimate D2E/DX2                !
 ! A23   A(21,7,34)            107.7576         estimate D2E/DX2                !
 ! A24   A(31,7,34)            105.3992         estimate D2E/DX2                !
 ! A25   A(9,8,15)             109.6312         estimate D2E/DX2                !
 ! A26   A(9,8,22)             107.6252         estimate D2E/DX2                !
 ! A27   A(9,8,31)             114.6092         estimate D2E/DX2                !
 ! A28   A(15,8,22)            108.1011         estimate D2E/DX2                !
 ! A29   A(15,8,31)            109.5175         estimate D2E/DX2                !
 ! A30   A(22,8,31)            107.1285         estimate D2E/DX2                !
 ! A31   A(8,9,10)             122.3288         estimate D2E/DX2                !
 ! A32   A(8,9,14)             119.4376         estimate D2E/DX2                !
 ! A33   A(10,9,14)            118.1837         estimate D2E/DX2                !
 ! A34   A(9,10,11)            120.915          estimate D2E/DX2                !
 ! A35   A(9,10,23)            120.0269         estimate D2E/DX2                !
 ! A36   A(11,10,23)           119.058          estimate D2E/DX2                !
 ! A37   A(10,11,12)           120.2742         estimate D2E/DX2                !
 ! A38   A(10,11,24)           119.7756         estimate D2E/DX2                !
 ! A39   A(12,11,24)           119.9503         estimate D2E/DX2                !
 ! A40   A(11,12,13)           119.3655         estimate D2E/DX2                !
 ! A41   A(11,12,25)           120.3            estimate D2E/DX2                !
 ! A42   A(13,12,25)           120.3343         estimate D2E/DX2                !
 ! A43   A(12,13,14)           120.0368         estimate D2E/DX2                !
 ! A44   A(12,13,26)           120.0979         estimate D2E/DX2                !
 ! A45   A(14,13,26)           119.8644         estimate D2E/DX2                !
 ! A46   A(9,14,13)            121.2171         estimate D2E/DX2                !
 ! A47   A(9,14,27)            119.207          estimate D2E/DX2                !
 ! A48   A(13,14,27)           119.5753         estimate D2E/DX2                !
 ! A49   A(8,15,28)            110.7694         estimate D2E/DX2                !
 ! A50   A(8,15,29)            110.5227         estimate D2E/DX2                !
 ! A51   A(8,15,30)            110.89           estimate D2E/DX2                !
 ! A52   A(28,15,29)           108.3297         estimate D2E/DX2                !
 ! A53   A(28,15,30)           108.3437         estimate D2E/DX2                !
 ! A54   A(29,15,30)           107.8847         estimate D2E/DX2                !
 ! A55   A(7,31,8)             115.1722         estimate D2E/DX2                !
 ! A56   A(7,31,32)            107.9079         estimate D2E/DX2                !
 ! A57   A(7,31,33)            109.017          estimate D2E/DX2                !
 ! A58   A(8,31,32)            110.5554         estimate D2E/DX2                !
 ! A59   A(8,31,33)            107.6014         estimate D2E/DX2                !
 ! A60   A(32,31,33)           106.2177         estimate D2E/DX2                !
 ! A61   A(7,34,35)            110.947          estimate D2E/DX2                !
 ! A62   A(34,35,36)           110.8535         estimate D2E/DX2                !
 ! A63   A(34,35,39)           111.7608         estimate D2E/DX2                !
 ! A64   A(36,35,39)           111.5984         estimate D2E/DX2                !
 ! A65   A(35,36,37)           100.0277         estimate D2E/DX2                !
 ! A66   A(35,36,50)           109.8503         estimate D2E/DX2                !
 ! A67   A(35,36,51)           113.4995         estimate D2E/DX2                !
 ! A68   A(37,36,50)           111.1797         estimate D2E/DX2                !
 ! A69   A(37,36,51)           112.0788         estimate D2E/DX2                !
 ! A70   A(50,36,51)           109.8877         estimate D2E/DX2                !
 ! A71   A(36,37,38)           105.0792         estimate D2E/DX2                !
 ! A72   A(36,37,57)           111.9543         estimate D2E/DX2                !
 ! A73   A(36,37,58)           109.6166         estimate D2E/DX2                !
 ! A74   A(38,37,57)           112.7901         estimate D2E/DX2                !
 ! A75   A(38,37,58)           108.8293         estimate D2E/DX2                !
 ! A76   A(57,37,58)           108.4866         estimate D2E/DX2                !
 ! A77   A(37,38,39)           104.673          estimate D2E/DX2                !
 ! A78   A(37,38,42)           110.2879         estimate D2E/DX2                !
 ! A79   A(37,38,43)           112.1845         estimate D2E/DX2                !
 ! A80   A(39,38,42)           109.0836         estimate D2E/DX2                !
 ! A81   A(39,38,43)           114.5181         estimate D2E/DX2                !
 ! A82   A(42,38,43)           106.1074         estimate D2E/DX2                !
 ! A83   A(35,39,38)           103.0547         estimate D2E/DX2                !
 ! A84   A(35,39,40)           113.2843         estimate D2E/DX2                !
 ! A85   A(35,39,41)           108.4807         estimate D2E/DX2                !
 ! A86   A(38,39,40)           113.4581         estimate D2E/DX2                !
 ! A87   A(38,39,41)           108.3111         estimate D2E/DX2                !
 ! A88   A(40,39,41)           109.905          estimate D2E/DX2                !
 ! A89   A(39,40,44)           109.5569         estimate D2E/DX2                !
 ! A90   A(39,40,45)           109.7392         estimate D2E/DX2                !
 ! A91   A(39,40,46)           112.0836         estimate D2E/DX2                !
 ! A92   A(44,40,45)           108.6867         estimate D2E/DX2                !
 ! A93   A(44,40,46)           108.6196         estimate D2E/DX2                !
 ! A94   A(45,40,46)           108.0816         estimate D2E/DX2                !
 ! A95   A(39,41,47)           110.459          estimate D2E/DX2                !
 ! A96   A(39,41,48)           110.5187         estimate D2E/DX2                !
 ! A97   A(39,41,49)           110.352          estimate D2E/DX2                !
 ! A98   A(47,41,48)           108.4756         estimate D2E/DX2                !
 ! A99   A(47,41,49)           107.7898         estimate D2E/DX2                !
 ! A100  A(48,41,49)           109.1766         estimate D2E/DX2                !
 ! A101  A(36,50,52)           110.0868         estimate D2E/DX2                !
 ! A102  A(36,50,53)           110.3705         estimate D2E/DX2                !
 ! A103  A(36,50,59)           111.1085         estimate D2E/DX2                !
 ! A104  A(52,50,53)           108.9656         estimate D2E/DX2                !
 ! A105  A(52,50,59)           108.7605         estimate D2E/DX2                !
 ! A106  A(53,50,59)           107.4776         estimate D2E/DX2                !
 ! A107  A(36,51,54)           112.6476         estimate D2E/DX2                !
 ! A108  A(36,51,55)           109.6111         estimate D2E/DX2                !
 ! A109  A(36,51,60)           109.5389         estimate D2E/DX2                !
 ! A110  A(54,51,55)           108.1532         estimate D2E/DX2                !
 ! A111  A(54,51,60)           108.2054         estimate D2E/DX2                !
 ! A112  A(55,51,60)           108.5912         estimate D2E/DX2                !
 ! A113  L(38,43,56,15,-1)     181.7647         estimate D2E/DX2                !
 ! A114  L(38,43,56,15,-2)     180.1126         estimate D2E/DX2                !
 ! D1    D(6,1,2,3)              0.15           estimate D2E/DX2                !
 ! D2    D(6,1,2,17)          -179.7226         estimate D2E/DX2                !
 ! D3    D(16,1,2,3)           179.6608         estimate D2E/DX2                !
 ! D4    D(16,1,2,17)           -0.2118         estimate D2E/DX2                !
 ! D5    D(2,1,6,5)             -0.1743         estimate D2E/DX2                !
 ! D6    D(2,1,6,20)           178.6663         estimate D2E/DX2                !
 ! D7    D(16,1,6,5)          -179.6853         estimate D2E/DX2                !
 ! D8    D(16,1,6,20)           -0.8447         estimate D2E/DX2                !
 ! D9    D(1,2,3,4)             -0.0007         estimate D2E/DX2                !
 ! D10   D(1,2,3,18)          -179.7617         estimate D2E/DX2                !
 ! D11   D(17,2,3,4)           179.872          estimate D2E/DX2                !
 ! D12   D(17,2,3,18)            0.111          estimate D2E/DX2                !
 ! D13   D(2,3,4,5)             -0.1271         estimate D2E/DX2                !
 ! D14   D(2,3,4,19)          -179.0312         estimate D2E/DX2                !
 ! D15   D(18,3,4,5)           179.6339         estimate D2E/DX2                !
 ! D16   D(18,3,4,19)            0.7298         estimate D2E/DX2                !
 ! D17   D(3,4,5,6)              0.1036         estimate D2E/DX2                !
 ! D18   D(3,4,5,7)           -178.6132         estimate D2E/DX2                !
 ! D19   D(19,4,5,6)           179.0063         estimate D2E/DX2                !
 ! D20   D(19,4,5,7)             0.2896         estimate D2E/DX2                !
 ! D21   D(4,5,6,1)              0.0472         estimate D2E/DX2                !
 ! D22   D(4,5,6,20)          -178.801          estimate D2E/DX2                !
 ! D23   D(7,5,6,1)            178.7776         estimate D2E/DX2                !
 ! D24   D(7,5,6,20)            -0.0705         estimate D2E/DX2                !
 ! D25   D(4,5,7,21)          -177.0945         estimate D2E/DX2                !
 ! D26   D(4,5,7,31)           -54.4948         estimate D2E/DX2                !
 ! D27   D(4,5,7,34)            64.0028         estimate D2E/DX2                !
 ! D28   D(6,5,7,21)             4.202          estimate D2E/DX2                !
 ! D29   D(6,5,7,31)           126.8018         estimate D2E/DX2                !
 ! D30   D(6,5,7,34)          -114.7007         estimate D2E/DX2                !
 ! D31   D(5,7,31,8)           179.9262         estimate D2E/DX2                !
 ! D32   D(5,7,31,32)          -56.0473         estimate D2E/DX2                !
 ! D33   D(5,7,31,33)           58.9025         estimate D2E/DX2                !
 ! D34   D(21,7,31,8)          -58.1266         estimate D2E/DX2                !
 ! D35   D(21,7,31,32)          65.8999         estimate D2E/DX2                !
 ! D36   D(21,7,31,33)        -179.1502         estimate D2E/DX2                !
 ! D37   D(34,7,31,8)           57.8316         estimate D2E/DX2                !
 ! D38   D(34,7,31,32)        -178.1419         estimate D2E/DX2                !
 ! D39   D(34,7,31,33)         -63.192          estimate D2E/DX2                !
 ! D40   D(5,7,34,35)           68.9144         estimate D2E/DX2                !
 ! D41   D(21,7,34,35)         -50.6919         estimate D2E/DX2                !
 ! D42   D(31,7,34,35)        -168.249          estimate D2E/DX2                !
 ! D43   D(15,8,9,10)          -88.3131         estimate D2E/DX2                !
 ! D44   D(15,8,9,14)           89.072          estimate D2E/DX2                !
 ! D45   D(22,8,9,10)          154.3359         estimate D2E/DX2                !
 ! D46   D(22,8,9,14)          -28.2791         estimate D2E/DX2                !
 ! D47   D(31,8,9,10)           35.2964         estimate D2E/DX2                !
 ! D48   D(31,8,9,14)         -147.3185         estimate D2E/DX2                !
 ! D49   D(9,8,15,28)         -177.0143         estimate D2E/DX2                !
 ! D50   D(9,8,15,29)           62.9127         estimate D2E/DX2                !
 ! D51   D(9,8,15,30)          -56.6817         estimate D2E/DX2                !
 ! D52   D(22,8,15,28)         -59.9617         estimate D2E/DX2                !
 ! D53   D(22,8,15,29)         179.9653         estimate D2E/DX2                !
 ! D54   D(22,8,15,30)          60.3709         estimate D2E/DX2                !
 ! D55   D(31,8,15,28)          56.4363         estimate D2E/DX2                !
 ! D56   D(31,8,15,29)         -63.6367         estimate D2E/DX2                !
 ! D57   D(31,8,15,30)         176.7689         estimate D2E/DX2                !
 ! D58   D(9,8,31,7)            55.3795         estimate D2E/DX2                !
 ! D59   D(9,8,31,32)          -67.2421         estimate D2E/DX2                !
 ! D60   D(9,8,31,33)          177.1703         estimate D2E/DX2                !
 ! D61   D(15,8,31,7)          179.0498         estimate D2E/DX2                !
 ! D62   D(15,8,31,32)          56.4282         estimate D2E/DX2                !
 ! D63   D(15,8,31,33)         -59.1594         estimate D2E/DX2                !
 ! D64   D(22,8,31,7)          -63.9383         estimate D2E/DX2                !
 ! D65   D(22,8,31,32)         173.4401         estimate D2E/DX2                !
 ! D66   D(22,8,31,33)          57.8525         estimate D2E/DX2                !
 ! D67   D(8,9,10,11)          178.3842         estimate D2E/DX2                !
 ! D68   D(8,9,10,23)           -1.7574         estimate D2E/DX2                !
 ! D69   D(14,9,10,11)           0.9678         estimate D2E/DX2                !
 ! D70   D(14,9,10,23)        -179.1738         estimate D2E/DX2                !
 ! D71   D(8,9,14,13)         -178.213          estimate D2E/DX2                !
 ! D72   D(8,9,14,27)            2.0862         estimate D2E/DX2                !
 ! D73   D(10,9,14,13)          -0.7197         estimate D2E/DX2                !
 ! D74   D(10,9,14,27)         179.5795         estimate D2E/DX2                !
 ! D75   D(9,10,11,12)          -0.448          estimate D2E/DX2                !
 ! D76   D(9,10,11,24)         179.592          estimate D2E/DX2                !
 ! D77   D(23,10,11,12)        179.6922         estimate D2E/DX2                !
 ! D78   D(23,10,11,24)         -0.2678         estimate D2E/DX2                !
 ! D79   D(10,11,12,13)         -0.3433         estimate D2E/DX2                !
 ! D80   D(10,11,12,25)        179.8464         estimate D2E/DX2                !
 ! D81   D(24,11,12,13)        179.6167         estimate D2E/DX2                !
 ! D82   D(24,11,12,25)         -0.1937         estimate D2E/DX2                !
 ! D83   D(11,12,13,14)          0.5897         estimate D2E/DX2                !
 ! D84   D(11,12,13,26)       -179.7766         estimate D2E/DX2                !
 ! D85   D(25,12,13,14)       -179.6            estimate D2E/DX2                !
 ! D86   D(25,12,13,26)          0.0337         estimate D2E/DX2                !
 ! D87   D(12,13,14,9)          -0.0523         estimate D2E/DX2                !
 ! D88   D(12,13,14,27)        179.6474         estimate D2E/DX2                !
 ! D89   D(26,13,14,9)        -179.6868         estimate D2E/DX2                !
 ! D90   D(26,13,14,27)          0.0129         estimate D2E/DX2                !
 ! D91   D(7,34,35,36)         110.1559         estimate D2E/DX2                !
 ! D92   D(7,34,35,39)        -124.6615         estimate D2E/DX2                !
 ! D93   D(34,35,36,37)        159.0784         estimate D2E/DX2                !
 ! D94   D(34,35,36,50)        -83.9266         estimate D2E/DX2                !
 ! D95   D(34,35,36,51)         39.5327         estimate D2E/DX2                !
 ! D96   D(39,35,36,37)         33.8044         estimate D2E/DX2                !
 ! D97   D(39,35,36,50)        150.7994         estimate D2E/DX2                !
 ! D98   D(39,35,36,51)        -85.7413         estimate D2E/DX2                !
 ! D99   D(34,35,39,38)       -139.5396         estimate D2E/DX2                !
 ! D100  D(34,35,39,40)        -16.5382         estimate D2E/DX2                !
 ! D101  D(34,35,39,41)        105.7807         estimate D2E/DX2                !
 ! D102  D(36,35,39,38)        -14.7706         estimate D2E/DX2                !
 ! D103  D(36,35,39,40)        108.2308         estimate D2E/DX2                !
 ! D104  D(36,35,39,41)       -129.4503         estimate D2E/DX2                !
 ! D105  D(35,36,37,38)        -39.1501         estimate D2E/DX2                !
 ! D106  D(35,36,37,57)       -161.9115         estimate D2E/DX2                !
 ! D107  D(35,36,37,58)         77.6503         estimate D2E/DX2                !
 ! D108  D(50,36,37,38)       -155.1472         estimate D2E/DX2                !
 ! D109  D(50,36,37,57)         82.0914         estimate D2E/DX2                !
 ! D110  D(50,36,37,58)        -38.3468         estimate D2E/DX2                !
 ! D111  D(51,36,37,38)         81.4269         estimate D2E/DX2                !
 ! D112  D(51,36,37,57)        -41.3346         estimate D2E/DX2                !
 ! D113  D(51,36,37,58)       -161.7727         estimate D2E/DX2                !
 ! D114  D(35,36,50,52)        -49.6032         estimate D2E/DX2                !
 ! D115  D(35,36,50,53)       -169.9292         estimate D2E/DX2                !
 ! D116  D(35,36,50,59)         70.9435         estimate D2E/DX2                !
 ! D117  D(37,36,50,52)         60.1772         estimate D2E/DX2                !
 ! D118  D(37,36,50,53)        -60.1488         estimate D2E/DX2                !
 ! D119  D(37,36,50,59)       -179.2761         estimate D2E/DX2                !
 ! D120  D(51,36,50,52)       -175.1532         estimate D2E/DX2                !
 ! D121  D(51,36,50,53)         64.5208         estimate D2E/DX2                !
 ! D122  D(51,36,50,59)        -54.6065         estimate D2E/DX2                !
 ! D123  D(35,36,51,54)         58.7371         estimate D2E/DX2                !
 ! D124  D(35,36,51,55)        -61.7298         estimate D2E/DX2                !
 ! D125  D(35,36,51,60)        179.2202         estimate D2E/DX2                !
 ! D126  D(37,36,51,54)        -53.675          estimate D2E/DX2                !
 ! D127  D(37,36,51,55)       -174.1418         estimate D2E/DX2                !
 ! D128  D(37,36,51,60)         66.8082         estimate D2E/DX2                !
 ! D129  D(50,36,51,54)       -177.8241         estimate D2E/DX2                !
 ! D130  D(50,36,51,55)         61.7091         estimate D2E/DX2                !
 ! D131  D(50,36,51,60)        -57.341          estimate D2E/DX2                !
 ! D132  D(36,37,38,39)         31.6029         estimate D2E/DX2                !
 ! D133  D(36,37,38,42)        148.8042         estimate D2E/DX2                !
 ! D134  D(36,37,38,43)        -93.1498         estimate D2E/DX2                !
 ! D135  D(57,37,38,39)        153.8243         estimate D2E/DX2                !
 ! D136  D(57,37,38,42)        -88.9745         estimate D2E/DX2                !
 ! D137  D(57,37,38,43)         29.0715         estimate D2E/DX2                !
 ! D138  D(58,37,38,39)        -85.7346         estimate D2E/DX2                !
 ! D139  D(58,37,38,42)         31.4667         estimate D2E/DX2                !
 ! D140  D(58,37,38,43)        149.5126         estimate D2E/DX2                !
 ! D141  D(37,38,39,35)        -10.71           estimate D2E/DX2                !
 ! D142  D(37,38,39,40)       -133.5954         estimate D2E/DX2                !
 ! D143  D(37,38,39,41)        104.0921         estimate D2E/DX2                !
 ! D144  D(42,38,39,35)       -128.735          estimate D2E/DX2                !
 ! D145  D(42,38,39,40)        108.3796         estimate D2E/DX2                !
 ! D146  D(42,38,39,41)        -13.9329         estimate D2E/DX2                !
 ! D147  D(43,38,39,35)        112.5494         estimate D2E/DX2                !
 ! D148  D(43,38,39,40)        -10.336          estimate D2E/DX2                !
 ! D149  D(43,38,39,41)       -132.6485         estimate D2E/DX2                !
 ! D150  D(35,39,40,44)       -174.8199         estimate D2E/DX2                !
 ! D151  D(35,39,40,45)         65.9247         estimate D2E/DX2                !
 ! D152  D(35,39,40,46)        -54.1705         estimate D2E/DX2                !
 ! D153  D(38,39,40,44)        -57.7673         estimate D2E/DX2                !
 ! D154  D(38,39,40,45)       -177.0226         estimate D2E/DX2                !
 ! D155  D(38,39,40,46)         62.8822         estimate D2E/DX2                !
 ! D156  D(41,39,40,44)         63.657          estimate D2E/DX2                !
 ! D157  D(41,39,40,45)        -55.5983         estimate D2E/DX2                !
 ! D158  D(41,39,40,46)       -175.6935         estimate D2E/DX2                !
 ! D159  D(35,39,41,47)        -63.3305         estimate D2E/DX2                !
 ! D160  D(35,39,41,48)        176.6185         estimate D2E/DX2                !
 ! D161  D(35,39,41,49)         55.7604         estimate D2E/DX2                !
 ! D162  D(38,39,41,47)       -174.5211         estimate D2E/DX2                !
 ! D163  D(38,39,41,48)         65.4279         estimate D2E/DX2                !
 ! D164  D(38,39,41,49)        -55.4302         estimate D2E/DX2                !
 ! D165  D(40,39,41,47)         61.0223         estimate D2E/DX2                !
 ! D166  D(40,39,41,48)        -59.0287         estimate D2E/DX2                !
 ! D167  D(40,39,41,49)       -179.8868         estimate D2E/DX2                !
 --------------------------------------------------------------------------------
 Trust Radius=3.00D-01 FncErr=1.00D-07 GrdErr=1.00D-06 EigMax=2.50D+02 EigMin=1.00D-04
 Number of steps in this run=    353 maximum allowed number of steps=    360.
 GradGradGradGradGradGradGradGradGradGradGradGradGradGradGradGradGradGrad

 Leave Link  103 at Thu Jan  9 01:23:02 2025, MaxMem=  4026531840 cpu:               0.4 elap:               0.0
 (Enter /usr/local/intel/g16/l202.exe)
 Stoichiometry    C25H32N2O
 Framework group  C1[X(C25H32N2O)]
 Deg. of freedom   174
 Full point group                 C1      NOp   1
 Largest Abelian subgroup         C1      NOp   1
 Largest concise Abelian subgroup C1      NOp   1
                         Standard orientation:                         
 ---------------------------------------------------------------------
 Center     Atomic      Atomic             Coordinates (Angstroms)
 Number     Number       Type             X           Y           Z
 ---------------------------------------------------------------------
      1          6           0       -1.972397    3.632897   -1.744898
      2          6           0       -2.788857    4.161208   -0.734334
      3          6           0       -2.610080    3.740773    0.594361
      4          6           0       -1.621725    2.799427    0.905920
      5          6           0       -0.800518    2.262807   -0.102486
      6          6           0       -0.985671    2.687372   -1.426509
      7          6           0        0.251321    1.220472    0.218728
      8          6           0        2.312409    0.648784    1.691656
      9          6           0        3.164816    0.177222    0.519885
     10          6           0        3.519138    1.028133   -0.543443
     11          6           0        4.333277    0.572218   -1.590673
     12          6           0        4.817100   -0.744783   -1.588565
     13          6           0        4.484572   -1.598361   -0.525502
     14          6           0        3.666535   -1.137447    0.514566
     15          6           0        3.223763    1.243549    2.791155
     16          1           0       -2.108672    3.949040   -2.773923
     17          1           0       -3.555963    4.889180   -0.977112
     18          1           0       -3.241488    4.143301    1.379692
     19          1           0       -1.500546    2.467985    1.932991
     20          1           0       -0.368072    2.262307   -2.212333
     21          1           0        0.805730    0.981761   -0.694612
     22          1           0        1.805301   -0.229484    2.107859
     23          1           0        3.159666    2.052932   -0.562463
     24          1           0        4.589722    1.242429   -2.405040
     25          1           0        5.444842   -1.098633   -2.399661
     26          1           0        4.855266   -2.618152   -0.510008
     27          1           0        3.408947   -1.806826    1.331445
     28          1           0        2.633988    1.540751    3.666231
     29          1           0        3.752835    2.127686    2.415339
     30          1           0        3.974230    0.514159    3.112971
     31          6           0        1.218568    1.671360    1.319921
     32          1           0        1.669958    2.621191    1.004627
     33          1           0        0.646905    1.891002    2.229777
     34          8           0       -0.351956   -0.023878    0.714855
     35          7           0       -1.080043   -0.703425   -0.339445
     36          6           0       -0.377861   -1.963263   -0.746174
     37          6           0       -1.546755   -2.721826   -1.402773
     38          6           0       -2.777606   -2.419555   -0.507768
     39          6           0       -2.517521   -0.968503    0.052343
     40          6           0       -2.768820   -0.841724    1.564317
     41          6           0       -3.421934    0.015436   -0.713997
     42          1           0       -3.691392   -2.412316   -1.109277
     43          6           0       -2.978050   -3.447025    0.527184
     44          1           0       -3.800045   -1.134502    1.790510
     45          1           0       -2.622726    0.194200    1.876835
     46          1           0       -2.091688   -1.470615    2.147478
     47          1           0       -3.200749    1.044239   -0.421562
     48          1           0       -4.478709   -0.187250   -0.500109
     49          1           0       -3.250261   -0.070207   -1.792322
     50          6           0        0.719843   -1.640971   -1.770874
     51          6           0        0.225428   -2.742930    0.442090
     52          1           0        0.314106   -1.014659   -2.572183
     53          1           0        1.117565   -2.564723   -2.207363
     54          1           0       -0.526298   -3.029447    1.182921
     55          1           0        0.976886   -2.127471    0.940508
     56          7           0       -3.164261   -4.282383    1.333368
     57          1           0       -1.341011   -3.790511   -1.492180
     58          1           0       -1.730313   -2.318767   -2.403800
     59          1           0        1.555141   -1.113502   -1.300722
     60          1           0        0.708764   -3.655003    0.074421
 ---------------------------------------------------------------------
 Rotational constants (GHZ):           0.2096379           0.1585926           0.1131232
 Leave Link  202 at Thu Jan  9 01:23:02 2025, MaxMem=  4026531840 cpu:               0.1 elap:               0.0
 (Enter /usr/local/intel/g16/l301.exe)
 Standard basis: def2TZVP (5D, 7F)
 Ernie: Thresh=  0.10000D-02 Tol=  0.10000D-05 Strict=F.
 There are  1200 symmetry adapted cartesian basis functions of A   symmetry.
 There are  1060 symmetry adapted basis functions of A   symmetry.
  1060 basis functions,  1684 primitive gaussians,  1200 cartesian basis functions
   102 alpha electrons      102 beta electrons
       nuclear repulsion energy      2759.5004185417 Hartrees.
 IExCor= 4336 DFT=T Ex+Corr=M062X ExCW=0 ScaHFX=  0.540000
 ScaDFX=  1.000000  1.000000  1.000000  1.000000 ScalE2=  1.000000  1.000000
 IRadAn=      5 IRanWt=     -1 IRanGd=            0 ICorTp=0 IEmpDi=  4
 NAtoms=   60 NActive=   60 NUniq=   60 SFac= 1.00D+00 NAtFMM=   60 NAOKFM=T Big=T
 Integral buffers will be    131072 words long.
 Raffenetti 2 integral format.
 Two-electron integral symmetry is turned on.
 Leave Link  301 at Thu Jan  9 01:23:02 2025, MaxMem=  4026531840 cpu:               1.4 elap:               0.1
 (Enter /usr/local/intel/g16/l302.exe)
 NPDir=0 NMtPBC=     1 NCelOv=     1 NCel=       1 NClECP=     1 NCelD=      1
         NCelK=      1 NCelE2=     1 NClLst=     1 CellRange=     0.0.
 One-electron integrals computed using PRISM.
 One-electron integral symmetry used in STVInt
   1 Symmetry operations used in ECPInt.
 ECPInt:  NShTT=   95266 NPrTT=  283840 LenC2=   82751 LenP2D=  172142.
 LDataN:  DoStor=T MaxTD1= 6 Len=  172
 NBasis=  1060 RedAO= T EigKep=  7.63D-06  NBF=  1060
 NBsUse=  1060 1.00D-06 EigRej= -1.00D+00 NBFU=  1060
 Precomputing XC quadrature grid using
 IXCGrd= 4 IRadAn=           5 IRanWt=          -1 IRanGd=           0 AccXCQ= 0.00D+00.
 Generated NRdTot=       0 NPtTot=           0 NUsed=           0 NTot=          32
 NSgBfM=  1173  1172  1173  1173  1173 MxSgAt=    60 MxSgA2=    60.
 Leave Link  302 at Thu Jan  9 01:23:07 2025, MaxMem=  4026531840 cpu:              94.5 elap:               4.7
 (Enter /usr/local/intel/g16/l303.exe)
 DipDrv:  MaxL=1.
 Leave Link  303 at Thu Jan  9 01:23:08 2025, MaxMem=  4026531840 cpu:               8.4 elap:               0.5
 (Enter /usr/local/intel/g16/l401.exe)
 ExpMin= 9.52D-02 ExpMax= 2.70D+04 ExpMxC= 9.22D+02 IAcc=3 IRadAn=         5 AccDes= 0.00D+00
 Harris functional with IExCor= 1009 and IRadAn=       5 diagonalized for initial guess.
 HarFok:  IExCor= 1009 AccDes= 0.00D+00 IRadAn=         5 IDoV= 1 UseB2=F ITyADJ=14
 ICtDFT=  3500011 ScaDFX=  1.000000  1.000000  1.000000  1.000000
 FoFCou: FMM=F IPFlag=           0 FMFlag=      100000 FMFlg1=        2001
         NFxFlg=           0 DoJE=T BraDBF=F KetDBF=T FulRan=T
         wScrn=  0.000000 ICntrl=       500 IOpCl=  0 I1Cent=   200000004 NGrid=           0
         NMat0=    1 NMatS0=      1 NMatT0=    0 NMatD0=    1 NMtDS0=    0 NMtDT0=    0
 Petite list used in FoFCou.
 Harris En= -1156.05126471078    
 JPrj=0 DoOrth=F DoCkMO=F.
 Leave Link  401 at Thu Jan  9 01:23:21 2025, MaxMem=  4026531840 cpu:             252.5 elap:              12.7
 (Enter /usr/local/intel/g16/l502.exe)
 Integral symmetry usage will be decided dynamically.
 Closed shell SCF:
 Using DIIS extrapolation, IDIIS=  1040.
 NGot=  4026531840 LenX=  4023615738 LenY=  4022174538
 Requested convergence on RMS density matrix=1.00D-08 within 128 cycles.
 Requested convergence on MAX density matrix=1.00D-06.
 Requested convergence on             energy=1.00D-06.
 No special actions if energy rises.
 Fock matrices will be formed incrementally for  20 cycles.
 Integral accuracy reduced to 1.0D-05 until final iterations.

 Cycle   1  Pass 0  IDiag  1:
 FoFJK:  IHMeth= 1 ICntrl=       0 DoSepK=F KAlg= 0 I1Cent=           0 FoldK=F
 IRaf= 920000000 NMat=       1 IRICut=       1 DoRegI=T DoRafI=F ISym2E= 0 IDoP0=0 IntGTp=1.
 FoFCou: FMM=T IPFlag=           0 FMFlag=      100000 FMFlg1=        2001
         NFxFlg=           0 DoJE=F BraDBF=F KetDBF=F FulRan=T
         wScrn=  0.000000 ICntrl=         0 IOpCl=  0 I1Cent=           0 NGrid=           0
         NMat0=    1 NMatS0=      1 NMatT0=    0 NMatD0=    1 NMtDS0=    0 NMtDT0=    0
 Symmetry not used in FoFCou.
 FMM levels:  10  Number of levels for PrismC:   9
 E= -1155.73660288448    
 DIIS: error= 1.57D-02 at cycle   1 NSaved=   1.
 NSaved= 1 IEnMin= 1 EnMin= -1155.73660288448     IErMin= 1 ErrMin= 1.57D-02
 ErrMax= 1.57D-02  0.00D+00 EMaxC= 1.00D-01 BMatC= 9.09D-01 BMatP= 9.09D-01
 IDIUse=3 WtCom= 8.43D-01 WtEn= 1.57D-01
 Coeff-Com:  0.100D+01
 Coeff-En:   0.100D+01
 Coeff:      0.100D+01
 Gap=     0.368 Goal=   None    Shift=    0.000
 GapD=    0.368 DampG=1.000 DampE=0.500 DampFc=0.5000 IDamp=-1.
 Damping current iteration by 5.00D-01
 RMSDP=9.19D+01 MaxDP=9.20D+03              OVMax= 9.95D-01

 Problem detected with inexpensive integrals.
 Switching to full accuracy and repeating last cycle.
 Cycle   2  Pass 1  IDiag  1:
 E= -1155.73663363282     Delta-E=       -0.000030748338 Rises=F Damp=F
 DIIS: error= 1.57D-02 at cycle   1 NSaved=   1.
 NSaved= 1 IEnMin= 1 EnMin= -1155.73663363282     IErMin= 1 ErrMin= 1.57D-02
 ErrMax= 1.57D-02  0.00D+00 EMaxC= 1.00D-01 BMatC= 9.08D-01 BMatP= 9.08D-01
 IDIUse=3 WtCom= 8.43D-01 WtEn= 1.57D-01
 Coeff-Com:  0.100D+01
 Coeff-En:   0.100D+01
 Coeff:      0.100D+01
 Gap=     0.368 Goal=   None    Shift=    0.000
 GapD=    0.368 DampG=1.000 DampE=0.500 DampFc=0.5000 IDamp=-1.
 Damping current iteration by 5.00D-01
 RMSDP=1.94D-03 MaxDP=2.51D-01 DE=-3.07D-05 OVMax= 1.39D-01

 Cycle   3  Pass 1  IDiag  1:
 RMSU=  9.53D-04    CP:  9.62D-01
 E= -1156.14448390296     Delta-E=       -0.407850270139 Rises=F Damp=T
 DIIS: error= 3.83D-03 at cycle   2 NSaved=   2.
 NSaved= 2 IEnMin= 2 EnMin= -1156.14448390296     IErMin= 2 ErrMin= 3.83D-03
 ErrMax= 3.83D-03  0.00D+00 EMaxC= 1.00D-01 BMatC= 7.12D-02 BMatP= 9.08D-01
 IDIUse=3 WtCom= 9.62D-01 WtEn= 3.83D-02
 Coeff-Com: -0.147D+00 0.115D+01
 Coeff-En:   0.000D+00 0.100D+01
 Coeff:     -0.141D+00 0.114D+01
 Gap=     0.367 Goal=   None    Shift=    0.000
 GapD=    0.367 DampG=1.000 DampE=1.000 DampFc=1.0000 IDamp=-1.
 RMSDP=9.22D-04 MaxDP=5.82D-02 DE=-4.08D-01 OVMax= 8.04D-02

 Cycle   4  Pass 1  IDiag  1:
 RMSU=  8.63D-04    CP:  9.34D-01  1.31D+00
 E= -1156.50305247731     Delta-E=       -0.358568574348 Rises=F Damp=F
 DIIS: error= 3.90D-03 at cycle   3 NSaved=   3.
 NSaved= 3 IEnMin= 3 EnMin= -1156.50305247731     IErMin= 2 ErrMin= 3.83D-03
 ErrMax= 3.90D-03  0.00D+00 EMaxC= 1.00D-01 BMatC= 2.50D-02 BMatP= 7.12D-02
 IDIUse=3 WtCom= 9.61D-01 WtEn= 3.90D-02
 Coeff-Com: -0.108D+00 0.445D+00 0.663D+00
 Coeff-En:   0.000D+00 0.000D+00 0.100D+01
 Coeff:     -0.104D+00 0.428D+00 0.676D+00
 Gap=     0.302 Goal=   None    Shift=    0.000
 RMSDP=2.07D-04 MaxDP=3.70D-02 DE=-3.59D-01 OVMax= 5.93D-02

 Cycle   5  Pass 1  IDiag  1:
 RMSU=  1.88D-04    CP:  9.33D-01  1.38D+00  9.36D-01
 E= -1156.51280604740     Delta-E=       -0.009753570094 Rises=F Damp=F
 DIIS: error= 3.11D-03 at cycle   4 NSaved=   4.
 NSaved= 4 IEnMin= 4 EnMin= -1156.51280604740     IErMin= 4 ErrMin= 3.11D-03
 ErrMax= 3.11D-03  0.00D+00 EMaxC= 1.00D-01 BMatC= 1.38D-02 BMatP= 2.50D-02
 IDIUse=3 WtCom= 9.69D-01 WtEn= 3.11D-02
 Coeff-Com: -0.479D-01 0.135D+00 0.449D+00 0.464D+00
 Coeff-En:   0.000D+00 0.000D+00 0.368D+00 0.632D+00
 Coeff:     -0.464D-01 0.131D+00 0.446D+00 0.470D+00
 Gap=     0.296 Goal=   None    Shift=    0.000
 RMSDP=1.06D-04 MaxDP=2.51D-02 DE=-9.75D-03 OVMax= 2.62D-02

 Cycle   6  Pass 1  IDiag  1:
 RMSU=  6.94D-05    CP:  9.31D-01  1.36D+00  9.48D-01  5.86D-01
 E= -1156.52417176299     Delta-E=       -0.011365715585 Rises=F Damp=F
 DIIS: error= 3.85D-04 at cycle   5 NSaved=   5.
 NSaved= 5 IEnMin= 5 EnMin= -1156.52417176299     IErMin= 5 ErrMin= 3.85D-04
 ErrMax= 3.85D-04  0.00D+00 EMaxC= 1.00D-01 BMatC= 2.95D-04 BMatP= 1.38D-02
 IDIUse=3 WtCom= 9.96D-01 WtEn= 3.85D-03
 Coeff-Com: -0.122D-01 0.266D-01 0.144D+00 0.203D+00 0.638D+00
 Coeff-En:   0.000D+00 0.000D+00 0.000D+00 0.000D+00 0.100D+01
 Coeff:     -0.122D-01 0.265D-01 0.144D+00 0.202D+00 0.640D+00
 Gap=     0.293 Goal=   None    Shift=    0.000
 RMSDP=2.21D-05 MaxDP=2.30D-03 DE=-1.14D-02 OVMax= 3.56D-03

 Cycle   7  Pass 1  IDiag  1:
 RMSU=  1.71D-05    CP:  9.32D-01  1.36D+00  9.54D-01  5.91D-01  8.19D-01
 E= -1156.52440648590     Delta-E=       -0.000234722917 Rises=F Damp=F
 DIIS: error= 8.42D-05 at cycle   6 NSaved=   6.
 NSaved= 6 IEnMin= 6 EnMin= -1156.52440648590     IErMin= 6 ErrMin= 8.42D-05
 ErrMax= 8.42D-05  0.00D+00 EMaxC= 1.00D-01 BMatC= 2.43D-05 BMatP= 2.95D-04
 IDIUse=1 WtCom= 1.00D+00 WtEn= 0.00D+00
 Coeff-Com: -0.172D-02 0.178D-02 0.312D-01 0.552D-01 0.284D+00 0.630D+00
 Coeff:     -0.172D-02 0.178D-02 0.312D-01 0.552D-01 0.284D+00 0.630D+00
 Gap=     0.295 Goal=   None    Shift=    0.000
 RMSDP=7.49D-06 MaxDP=8.13D-04 DE=-2.35D-04 OVMax= 1.04D-03

 Cycle   8  Pass 1  IDiag  1:
 RMSU=  6.73D-06    CP:  9.31D-01  1.36D+00  9.55D-01  5.96D-01  8.52D-01
                    CP:  9.61D-01
 E= -1156.52442635813     Delta-E=       -0.000019872229 Rises=F Damp=F
 DIIS: error= 2.94D-05 at cycle   7 NSaved=   7.
 NSaved= 7 IEnMin= 7 EnMin= -1156.52442635813     IErMin= 7 ErrMin= 2.94D-05
 ErrMax= 2.94D-05  0.00D+00 EMaxC= 1.00D-01 BMatC= 1.75D-06 BMatP= 2.43D-05
 IDIUse=1 WtCom= 1.00D+00 WtEn= 0.00D+00
 Coeff-Com:  0.841D-03-0.247D-02-0.523D-02-0.387D-02 0.285D-01 0.224D+00
 Coeff-Com:  0.758D+00
 Coeff:      0.841D-03-0.247D-02-0.523D-02-0.387D-02 0.285D-01 0.224D+00
 Coeff:      0.758D+00
 Gap=     0.294 Goal=   None    Shift=    0.000
 RMSDP=3.04D-06 MaxDP=6.37D-04 DE=-1.99D-05 OVMax= 4.32D-04

 Cycle   9  Pass 1  IDiag  1:
 RMSU=  2.06D-06    CP:  9.31D-01  1.36D+00  9.55D-01  5.92D-01  8.72D-01
                    CP:  1.04D+00  9.75D-01
 E= -1156.52442781307     Delta-E=       -0.000001454932 Rises=F Damp=F
 DIIS: error= 1.36D-05 at cycle   8 NSaved=   8.
 NSaved= 8 IEnMin= 8 EnMin= -1156.52442781307     IErMin= 8 ErrMin= 1.36D-05
 ErrMax= 1.36D-05  0.00D+00 EMaxC= 1.00D-01 BMatC= 3.64D-07 BMatP= 1.75D-06
 IDIUse=1 WtCom= 1.00D+00 WtEn= 0.00D+00
 Coeff-Com:  0.609D-03-0.142D-02-0.613D-02-0.856D-02-0.187D-01 0.376D-01
 Coeff-Com:  0.375D+00 0.621D+00
 Coeff:      0.609D-03-0.142D-02-0.613D-02-0.856D-02-0.187D-01 0.376D-01
 Coeff:      0.375D+00 0.621D+00
 Gap=     0.294 Goal=   None    Shift=    0.000
 RMSDP=9.46D-07 MaxDP=1.02D-04 DE=-1.45D-06 OVMax= 1.70D-04

 Cycle  10  Pass 1  IDiag  1:
 RMSU=  7.18D-07    CP:  9.31D-01  1.36D+00  9.56D-01  5.92D-01  8.77D-01
                    CP:  1.05D+00  1.04D+00  9.15D-01
 E= -1156.52442816747     Delta-E=       -0.000000354407 Rises=F Damp=F
 DIIS: error= 3.34D-06 at cycle   9 NSaved=   9.
 NSaved= 9 IEnMin= 9 EnMin= -1156.52442816747     IErMin= 9 ErrMin= 3.34D-06
 ErrMax= 3.34D-06  0.00D+00 EMaxC= 1.00D-01 BMatC= 2.33D-08 BMatP= 3.64D-07
 IDIUse=1 WtCom= 1.00D+00 WtEn= 0.00D+00
 Coeff-Com:  0.174D-03-0.376D-03-0.201D-02-0.318D-02-0.925D-02-0.191D-02
 Coeff-Com:  0.876D-01 0.255D+00 0.674D+00
 Coeff:      0.174D-03-0.376D-03-0.201D-02-0.318D-02-0.925D-02-0.191D-02
 Coeff:      0.876D-01 0.255D+00 0.674D+00
 Gap=     0.294 Goal=   None    Shift=    0.000
 RMSDP=2.70D-07 MaxDP=2.98D-05 DE=-3.54D-07 OVMax= 4.44D-05

 Cycle  11  Pass 1  IDiag  1:
 RMSU=  2.19D-07    CP:  9.31D-01  1.36D+00  9.56D-01  5.91D-01  8.77D-01
                    CP:  1.05D+00  1.04D+00  9.41D-01  8.84D-01
 E= -1156.52442819004     Delta-E=       -0.000000022566 Rises=F Damp=F
 DIIS: error= 9.46D-07 at cycle  10 NSaved=  10.
 NSaved=10 IEnMin=10 EnMin= -1156.52442819004     IErMin=10 ErrMin= 9.46D-07
 ErrMax= 9.46D-07  0.00D+00 EMaxC= 1.00D-01 BMatC= 3.08D-09 BMatP= 2.33D-08
 IDIUse=1 WtCom= 1.00D+00 WtEn= 0.00D+00
 Coeff-Com:  0.779D-05-0.102D-04-0.208D-03-0.483D-03-0.207D-02-0.519D-02
 Coeff-Com: -0.472D-02 0.412D-01 0.301D+00 0.670D+00
 Coeff:      0.779D-05-0.102D-04-0.208D-03-0.483D-03-0.207D-02-0.519D-02
 Coeff:     -0.472D-02 0.412D-01 0.301D+00 0.670D+00
 Gap=     0.294 Goal=   None    Shift=    0.000
 RMSDP=1.19D-07 MaxDP=1.75D-05 DE=-2.26D-08 OVMax= 1.14D-05

 Cycle  12  Pass 1  IDiag  1:
 RMSU=  7.68D-08    CP:  9.31D-01  1.36D+00  9.56D-01  5.91D-01  8.77D-01
                    CP:  1.05D+00  1.04D+00  9.59D-01  9.70D-01  9.43D-01
 E= -1156.52442819277     Delta-E=       -0.000000002729 Rises=F Damp=F
 DIIS: error= 3.39D-07 at cycle  11 NSaved=  11.
 NSaved=11 IEnMin=11 EnMin= -1156.52442819277     IErMin=11 ErrMin= 3.39D-07
 ErrMax= 3.39D-07  0.00D+00 EMaxC= 1.00D-01 BMatC= 2.89D-10 BMatP= 3.08D-09
 IDIUse=1 WtCom= 1.00D+00 WtEn= 0.00D+00
 Coeff-Com: -0.149D-04 0.355D-04 0.127D-03 0.142D-03 0.196D-03-0.156D-02
 Coeff-Com: -0.107D-01-0.113D-01 0.511D-01 0.274D+00 0.698D+00
 Coeff:     -0.149D-04 0.355D-04 0.127D-03 0.142D-03 0.196D-03-0.156D-02
 Coeff:     -0.107D-01-0.113D-01 0.511D-01 0.274D+00 0.698D+00
 Gap=     0.294 Goal=   None    Shift=    0.000
 RMSDP=3.24D-08 MaxDP=3.30D-06 DE=-2.73D-09 OVMax= 6.18D-06

 Cycle  13  Pass 1  IDiag  1:
 RMSU=  2.39D-08    CP:  9.31D-01  1.36D+00  9.56D-01  5.91D-01  8.77D-01
                    CP:  1.05D+00  1.04D+00  9.62D-01  9.82D-01  9.95D-01
                    CP:  9.86D-01
 E= -1156.52442819306     Delta-E=       -0.000000000292 Rises=F Damp=F
 DIIS: error= 9.75D-08 at cycle  12 NSaved=  12.
 NSaved=12 IEnMin=12 EnMin= -1156.52442819306     IErMin=12 ErrMin= 9.75D-08
 ErrMax= 9.75D-08  0.00D+00 EMaxC= 1.00D-01 BMatC= 3.19D-11 BMatP= 2.89D-10
 IDIUse=1 WtCom= 1.00D+00 WtEn= 0.00D+00
 Coeff-Com: -0.547D-05 0.127D-04 0.637D-04 0.933D-04 0.250D-03-0.288D-04
 Coeff-Com: -0.318D-02-0.854D-02-0.143D-01 0.221D-01 0.263D+00 0.740D+00
 Coeff:     -0.547D-05 0.127D-04 0.637D-04 0.933D-04 0.250D-03-0.288D-04
 Coeff:     -0.318D-02-0.854D-02-0.143D-01 0.221D-01 0.263D+00 0.740D+00
 Gap=     0.294 Goal=   None    Shift=    0.000
 RMSDP=1.21D-08 MaxDP=8.50D-07 DE=-2.92D-10 OVMax= 2.14D-06

 Cycle  14  Pass 1  IDiag  1:
 RMSU=  8.72D-09    CP:  9.31D-01  1.36D+00  9.56D-01  5.91D-01  8.77D-01
                    CP:  1.05D+00  1.04D+00  9.63D-01  9.87D-01  1.00D+00
                    CP:  1.04D+00  9.01D-01
 E= -1156.52442819313     Delta-E=       -0.000000000068 Rises=F Damp=F
 DIIS: error= 6.08D-08 at cycle  13 NSaved=  13.
 NSaved=13 IEnMin=13 EnMin= -1156.52442819313     IErMin=13 ErrMin= 6.08D-08
 ErrMax= 6.08D-08  0.00D+00 EMaxC= 1.00D-01 BMatC= 4.15D-12 BMatP= 3.19D-11
 IDIUse=1 WtCom= 1.00D+00 WtEn= 0.00D+00
 Coeff-Com: -0.185D-06 0.382D-06 0.960D-05 0.189D-04 0.716D-04 0.175D-03
 Coeff-Com: -0.106D-04-0.215D-02-0.112D-01-0.239D-01 0.292D-01 0.296D+00
 Coeff-Com:  0.712D+00
 Coeff:     -0.185D-06 0.382D-06 0.960D-05 0.189D-04 0.716D-04 0.175D-03
 Coeff:     -0.106D-04-0.215D-02-0.112D-01-0.239D-01 0.292D-01 0.296D+00
 Coeff:      0.712D+00
 Gap=     0.294 Goal=   None    Shift=    0.000
 RMSDP=3.82D-09 MaxDP=2.78D-07 DE=-6.78D-11 OVMax= 9.26D-07

 SCF Done:  E(RM062X) =  -1156.52442819     A.U. after   14 cycles
            NFock= 14  Conv=0.38D-08     -V/T= 2.0061
 KE= 1.149532445659D+03 PE=-8.202980225417D+03 EE= 3.137422933024D+03
 Leave Link  502 at Thu Jan  9 01:53:10 2025, MaxMem=  4026531840 cpu:           35732.5 elap:            1788.8
 (Enter /usr/local/intel/g16/l601.exe)
 Copying SCF densities to generalized density rwf, IOpCl= 0 IROHF=0.

 **********************************************************************

            Population analysis using the SCF Density.

 **********************************************************************

 Orbital symmetries:
       Occupied  (A) (A) (A) (A) (A) (A) (A) (A) (A) (A) (A) (A)
                 (A) (A) (A) (A) (A) (A) (A) (A) (A) (A) (A) (A)
                 (A) (A) (A) (A) (A) (A) (A) (A) (A) (A) (A) (A)
                 (A) (A) (A) (A) (A) (A) (A) (A) (A) (A) (A) (A)
                 (A) (A) (A) (A) (A) (A) (A) (A) (A) (A) (A) (A)
                 (A) (A) (A) (A) (A) (A) (A) (A) (A) (A) (A) (A)
                 (A) (A) (A) (A) (A) (A) (A) (A) (A) (A) (A) (A)
                 (A) (A) (A) (A) (A) (A) (A) (A) (A) (A) (A) (A)
                 (A) (A) (A) (A) (A) (A)
       Virtual   (A) (A) (A) (A) (A) (A) (A) (A) (A) (A) (A) (A)
                 (A) (A) (A) (A) (A) (A) (A) (A) (A) (A) (A) (A)
                 (A) (A) (A) (A) (A) (A) (A) (A) (A) (A) (A) (A)
                 (A) (A) (A) (A) (A) (A) (A) (A) (A) (A) (A) (A)
                 (A) (A) (A) (A) (A) (A) (A) (A) (A) (A) (A) (A)
                 (A) (A) (A) (A) (A) (A) (A) (A) (A) (A) (A) (A)
                 (A) (A) (A) (A) (A) (A) (A) (A) (A) (A) (A) (A)
                 (A) (A) (A) (A) (A) (A) (A) (A) (A) (A) (A) (A)
                 (A) (A) (A) (A) (A) (A) (A) (A) (A) (A) (A) (A)
                 (A) (A) (A) (A) (A) (A) (A) (A) (A) (A) (A) (A)
                 (A) (A) (A) (A) (A) (A) (A) (A) (A) (A) (A) (A)
                 (A) (A) (A) (A) (A) (A) (A) (A) (A) (A) (A) (A)
                 (A) (A) (A) (A) (A) (A) (A) (A) (A) (A) (A) (A)
                 (A) (A) (A) (A) (A) (A) (A) (A) (A) (A) (A) (A)
                 (A) (A) (A) (A) (A) (A) (A) (A) (A) (A) (A) (A)
                 (A) (A) (A) (A) (A) (A) (A) (A) (A) (A) (A) (A)
                 (A) (A) (A) (A) (A) (A) (A) (A) (A) (A) (A) (A)
                 (A) (A) (A) (A) (A) (A) (A) (A) (A) (A) (A) (A)
                 (A) (A) (A) (A) (A) (A) (A) (A) (A) (A) (A) (A)
                 (A) (A) (A) (A) (A) (A) (A) (A) (A) (A) (A) (A)
                 (A) (A) (A) (A) (A) (A) (A) (A) (A) (A) (A) (A)
                 (A) (A) (A) (A) (A) (A) (A) (A) (A) (A) (A) (A)
                 (A) (A) (A) (A) (A) (A) (A) (A) (A) (A) (A) (A)
                 (A) (A) (A) (A) (A) (A) (A) (A) (A) (A) (A) (A)
                 (A) (A) (A) (A) (A) (A) (A) (A) (A) (A) (A) (A)
                 (A) (A) (A) (A) (A) (A) (A) (A) (A) (A) (A) (A)
                 (A) (A) (A) (A) (A) (A) (A) (A) (A) (A) (A) (A)
                 (A) (A) (A) (A) (A) (A) (A) (A) (A) (A) (A) (A)
                 (A) (A) (A) (A) (A) (A) (A) (A) (A) (A) (A) (A)
                 (A) (A) (A) (A) (A) (A) (A) (A) (A) (A) (A) (A)
                 (A) (A) (A) (A) (A) (A) (A) (A) (A) (A) (A) (A)
                 (A) (A) (A) (A) (A) (A) (A) (A) (A) (A) (A) (A)
                 (A) (A) (A) (A) (A) (A) (A) (A) (A) (A) (A) (A)
                 (A) (A) (A) (A) (A) (A) (A) (A) (A) (A) (A) (A)
                 (A) (A) (A) (A) (A) (A) (A) (A) (A) (A) (A) (A)
                 (A) (A) (A) (A) (A) (A) (A) (A) (A) (A) (A) (A)
                 (A) (A) (A) (A) (A) (A) (A) (A) (A) (A) (A) (A)
                 (A) (A) (A) (A) (A) (A) (A) (A) (A) (A) (A) (A)
                 (A) (A) (A) (A) (A) (A) (A) (A) (A) (A) (A) (A)
                 (A) (A) (A) (A) (A) (A) (A) (A) (A) (A) (A) (A)
                 (A) (A) (A) (A) (A) (A) (A) (A) (A) (A) (A) (A)
                 (A) (A) (A) (A) (A) (A) (A) (A) (A) (A) (A) (A)
                 (A) (A) (A) (A) (A) (A) (A) (A) (A) (A) (A) (A)
                 (A) (A) (A) (A) (A) (A) (A) (A) (A) (A) (A) (A)
                 (A) (A) (A) (A) (A) (A) (A) (A) (A) (A) (A) (A)
                 (A) (A) (A) (A) (A) (A) (A) (A) (A) (A) (A) (A)
                 (A) (A) (A) (A) (A) (A) (A) (A) (A) (A) (A) (A)
                 (A) (A) (A) (A) (A) (A) (A) (A) (A) (A) (A) (A)
                 (A) (A) (A) (A) (A) (A) (A) (A) (A) (A) (A) (A)
                 (A) (A) (A) (A) (A) (A) (A) (A) (A) (A) (A) (A)
                 (A) (A) (A) (A) (A) (A) (A) (A) (A) (A) (A) (A)
                 (A) (A) (A) (A) (A) (A) (A) (A) (A) (A) (A) (A)
                 (A) (A) (A) (A) (A) (A) (A) (A) (A) (A) (A) (A)
                 (A) (A) (A) (A) (A) (A) (A) (A) (A) (A) (A) (A)
                 (A) (A) (A) (A) (A) (A) (A) (A) (A) (A) (A) (A)
                 (A) (A) (A) (A) (A) (A) (A) (A) (A) (A) (A) (A)
                 (A) (A) (A) (A) (A) (A) (A) (A) (A) (A) (A) (A)
                 (A) (A) (A) (A) (A) (A) (A) (A) (A) (A) (A) (A)
                 (A) (A) (A) (A) (A) (A) (A) (A) (A) (A) (A) (A)
                 (A) (A) (A) (A) (A) (A) (A) (A) (A) (A) (A) (A)
                 (A) (A) (A) (A) (A) (A) (A) (A) (A) (A) (A) (A)
                 (A) (A) (A) (A) (A) (A) (A) (A) (A) (A) (A) (A)
                 (A) (A) (A) (A) (A) (A) (A) (A) (A) (A) (A) (A)
                 (A) (A) (A) (A) (A) (A) (A) (A) (A) (A) (A) (A)
                 (A) (A) (A) (A) (A) (A) (A) (A) (A) (A) (A) (A)
                 (A) (A) (A) (A) (A) (A) (A) (A) (A) (A) (A) (A)
                 (A) (A) (A) (A) (A) (A) (A) (A) (A) (A) (A) (A)
                 (A) (A) (A) (A) (A) (A) (A) (A) (A) (A) (A) (A)
                 (A) (A) (A) (A) (A) (A) (A) (A) (A) (A) (A) (A)
                 (A) (A) (A) (A) (A) (A) (A) (A) (A) (A) (A) (A)
                 (A) (A) (A) (A) (A) (A) (A) (A) (A) (A) (A) (A)
                 (A) (A) (A) (A) (A) (A) (A) (A) (A) (A) (A) (A)
                 (A) (A) (A) (A) (A) (A) (A) (A) (A) (A) (A) (A)
                 (A) (A) (A) (A) (A) (A) (A) (A) (A) (A) (A) (A)
                 (A) (A) (A) (A) (A) (A) (A) (A) (A) (A) (A) (A)
                 (A) (A) (A) (A) (A) (A) (A) (A) (A) (A) (A) (A)
                 (A) (A) (A) (A) (A) (A) (A) (A) (A) (A) (A) (A)
                 (A) (A) (A) (A) (A) (A) (A) (A) (A) (A) (A) (A)
                 (A) (A) (A) (A) (A) (A) (A) (A) (A) (A) (A) (A)
                 (A) (A) (A) (A) (A) (A) (A) (A) (A) (A)
 The electronic state is 1-A.
 Alpha  occ. eigenvalues --  -19.65760 -14.78846 -14.74970 -10.59694 -10.59425
 Alpha  occ. eigenvalues --  -10.58860 -10.58163 -10.57638 -10.55580 -10.55495
 Alpha  occ. eigenvalues --  -10.55432 -10.55270 -10.55220 -10.55160 -10.55138
 Alpha  occ. eigenvalues --  -10.55080 -10.55035 -10.55035 -10.54932 -10.54809
 Alpha  occ. eigenvalues --  -10.54774 -10.54650 -10.54384 -10.53119 -10.52506
 Alpha  occ. eigenvalues --  -10.52489 -10.52269 -10.52151  -1.17807  -1.01536
 Alpha  occ. eigenvalues --   -0.99388  -0.96628  -0.96360  -0.91567  -0.90446
 Alpha  occ. eigenvalues --   -0.88376  -0.85955  -0.84725  -0.84433  -0.83049
 Alpha  occ. eigenvalues --   -0.81992  -0.79941  -0.78370  -0.77498  -0.74971
 Alpha  occ. eigenvalues --   -0.73232  -0.70778  -0.69589  -0.68907  -0.66735
 Alpha  occ. eigenvalues --   -0.65993  -0.64630  -0.63082  -0.59799  -0.59282
 Alpha  occ. eigenvalues --   -0.58954  -0.56709  -0.55465  -0.54457  -0.54312
 Alpha  occ. eigenvalues --   -0.53350  -0.52687  -0.51954  -0.51436  -0.51286
 Alpha  occ. eigenvalues --   -0.50485  -0.50027  -0.49312  -0.49102  -0.48937
 Alpha  occ. eigenvalues --   -0.48411  -0.47461  -0.46895  -0.46742  -0.45965
 Alpha  occ. eigenvalues --   -0.45525  -0.44894  -0.44570  -0.44414  -0.43695
 Alpha  occ. eigenvalues --   -0.43656  -0.43389  -0.42750  -0.42490  -0.41985
 Alpha  occ. eigenvalues --   -0.41703  -0.41259  -0.41179  -0.40587  -0.39922
 Alpha  occ. eigenvalues --   -0.39201  -0.38866  -0.38539  -0.38112  -0.37212
 Alpha  occ. eigenvalues --   -0.36632  -0.34409  -0.31441  -0.31123  -0.30811
 Alpha  occ. eigenvalues --   -0.30037  -0.28786
 Alpha virt. eigenvalues --    0.00654   0.01107   0.01317   0.01457   0.04755
 Alpha virt. eigenvalues --    0.06006   0.06411   0.07173   0.07339   0.07540
 Alpha virt. eigenvalues --    0.08256   0.08846   0.09132   0.09589   0.10253
 Alpha virt. eigenvalues --    0.10842   0.10958   0.11418   0.11568   0.11853
 Alpha virt. eigenvalues --    0.12384   0.12752   0.13114   0.13337   0.13733
 Alpha virt. eigenvalues --    0.14265   0.14349   0.14531   0.15148   0.15393
 Alpha virt. eigenvalues --    0.15659   0.15852   0.16267   0.16461   0.16815
 Alpha virt. eigenvalues --    0.17335   0.17456   0.17640   0.18263   0.18360
 Alpha virt. eigenvalues --    0.18878   0.19309   0.19449   0.19837   0.20128
 Alpha virt. eigenvalues --    0.20463   0.21071   0.21241   0.21757   0.22005
 Alpha virt. eigenvalues --    0.22129   0.22697   0.22806   0.23111   0.23695
 Alpha virt. eigenvalues --    0.24274   0.24678   0.24859   0.25074   0.25463
 Alpha virt. eigenvalues --    0.25619   0.26387   0.26659   0.27101   0.27592
 Alpha virt. eigenvalues --    0.28003   0.28286   0.28582   0.29243   0.29369
 Alpha virt. eigenvalues --    0.29785   0.29847   0.30041   0.30820   0.31280
 Alpha virt. eigenvalues --    0.32071   0.32292   0.32514   0.32747   0.33478
 Alpha virt. eigenvalues --    0.33653   0.33837   0.34407   0.34550   0.34672
 Alpha virt. eigenvalues --    0.35488   0.36239   0.36339   0.36498   0.36751
 Alpha virt. eigenvalues --    0.37057   0.37663   0.37729   0.38127   0.38536
 Alpha virt. eigenvalues --    0.38740   0.39033   0.39272   0.39964   0.40224
 Alpha virt. eigenvalues --    0.40482   0.40842   0.40896   0.41324   0.41476
 Alpha virt. eigenvalues --    0.41764   0.42207   0.42480   0.43038   0.43131
 Alpha virt. eigenvalues --    0.43416   0.43745   0.44018   0.44347   0.44423
 Alpha virt. eigenvalues --    0.44910   0.44983   0.45627   0.46115   0.46141
 Alpha virt. eigenvalues --    0.46203   0.46476   0.46851   0.47147   0.47170
 Alpha virt. eigenvalues --    0.47739   0.48183   0.48417   0.48478   0.48736
 Alpha virt. eigenvalues --    0.49058   0.49184   0.49443   0.49533   0.50173
 Alpha virt. eigenvalues --    0.50635   0.50856   0.51152   0.51737   0.51869
 Alpha virt. eigenvalues --    0.52016   0.52052   0.52522   0.52664   0.52865
 Alpha virt. eigenvalues --    0.53165   0.53795   0.53994   0.54323   0.54596
 Alpha virt. eigenvalues --    0.54755   0.55377   0.55870   0.56196   0.56521
 Alpha virt. eigenvalues --    0.56681   0.57327   0.57639   0.57995   0.58399
 Alpha virt. eigenvalues --    0.58801   0.59174   0.59760   0.60292   0.60758
 Alpha virt. eigenvalues --    0.61072   0.61275   0.61930   0.62185   0.62668
 Alpha virt. eigenvalues --    0.62911   0.63803   0.64455   0.65368   0.65553
 Alpha virt. eigenvalues --    0.66416   0.66923   0.67325   0.67924   0.68519
 Alpha virt. eigenvalues --    0.68791   0.69486   0.69776   0.70241   0.70438
 Alpha virt. eigenvalues --    0.71403   0.72257   0.72348   0.72596   0.73000
 Alpha virt. eigenvalues --    0.73383   0.73761   0.74179   0.74610   0.74988
 Alpha virt. eigenvalues --    0.75697   0.76296   0.76613   0.77535   0.77812
 Alpha virt. eigenvalues --    0.78410   0.78894   0.79730   0.80124   0.81072
 Alpha virt. eigenvalues --    0.81163   0.81923   0.82184   0.82982   0.83430
 Alpha virt. eigenvalues --    0.84234   0.84459   0.85374   0.85586   0.86119
 Alpha virt. eigenvalues --    0.86402   0.86545   0.87090   0.87608   0.88796
 Alpha virt. eigenvalues --    0.89337   0.90246   0.90714   0.90865   0.91806
 Alpha virt. eigenvalues --    0.92004   0.92718   0.93257   0.93508   0.93735
 Alpha virt. eigenvalues --    0.94029   0.94963   0.95175   0.95415   0.96819
 Alpha virt. eigenvalues --    0.97195   0.97565   0.97869   0.98065   0.98556
 Alpha virt. eigenvalues --    0.98957   1.00128   1.00322   1.00772   1.01676
 Alpha virt. eigenvalues --    1.02174   1.02943   1.04053   1.04899   1.05208
 Alpha virt. eigenvalues --    1.05476   1.06014   1.06728   1.07090   1.07622
 Alpha virt. eigenvalues --    1.08280   1.08676   1.09371   1.10122   1.11229
 Alpha virt. eigenvalues --    1.11500   1.11960   1.12151   1.12712   1.13028
 Alpha virt. eigenvalues --    1.13959   1.14451   1.15378   1.15969   1.16285
 Alpha virt. eigenvalues --    1.16667   1.17183   1.17861   1.18462   1.18975
 Alpha virt. eigenvalues --    1.19517   1.19756   1.20225   1.20391   1.21297
 Alpha virt. eigenvalues --    1.21474   1.22704   1.23162   1.23450   1.24329
 Alpha virt. eigenvalues --    1.24495   1.25222   1.25731   1.26113   1.26352
 Alpha virt. eigenvalues --    1.26773   1.27684   1.28108   1.28599   1.28725
 Alpha virt. eigenvalues --    1.29258   1.29983   1.30423   1.30472   1.31661
 Alpha virt. eigenvalues --    1.32099   1.32703   1.33048   1.33928   1.34104
 Alpha virt. eigenvalues --    1.34720   1.34766   1.35457   1.36029   1.36563
 Alpha virt. eigenvalues --    1.36762   1.37411   1.37866   1.38574   1.38882
 Alpha virt. eigenvalues --    1.39481   1.40155   1.40400   1.41910   1.42860
 Alpha virt. eigenvalues --    1.43311   1.44051   1.44254   1.44612   1.45665
 Alpha virt. eigenvalues --    1.47025   1.47379   1.47542   1.48258   1.48990
 Alpha virt. eigenvalues --    1.49322   1.50024   1.50159   1.50794   1.51328
 Alpha virt. eigenvalues --    1.51750   1.52559   1.53077   1.53996   1.54833
 Alpha virt. eigenvalues --    1.55792   1.56210   1.56764   1.56831   1.57848
 Alpha virt. eigenvalues --    1.58044   1.59007   1.59105   1.59713   1.60020
 Alpha virt. eigenvalues --    1.60874   1.61394   1.61892   1.62573   1.62884
 Alpha virt. eigenvalues --    1.63431   1.63518   1.63840   1.64357   1.64949
 Alpha virt. eigenvalues --    1.65725   1.65786   1.66260   1.66809   1.66933
 Alpha virt. eigenvalues --    1.67466   1.67761   1.67898   1.68965   1.69392
 Alpha virt. eigenvalues --    1.69744   1.70530   1.71504   1.71568   1.71793
 Alpha virt. eigenvalues --    1.72507   1.72802   1.73107   1.73393   1.73698
 Alpha virt. eigenvalues --    1.74107   1.74327   1.74578   1.75071   1.75487
 Alpha virt. eigenvalues --    1.75623   1.76889   1.77487   1.78138   1.78843
 Alpha virt. eigenvalues --    1.79000   1.79842   1.80350   1.80958   1.81409
 Alpha virt. eigenvalues --    1.82408   1.83710   1.84355   1.85041   1.86079
 Alpha virt. eigenvalues --    1.86833   1.87530   1.88642   1.89129   1.90138
 Alpha virt. eigenvalues --    1.90407   1.90733   1.91496   1.92131   1.92637
 Alpha virt. eigenvalues --    1.93402   1.93890   1.95366   1.95760   1.96600
 Alpha virt. eigenvalues --    1.97106   1.97960   1.98614   1.98989   1.99778
 Alpha virt. eigenvalues --    2.00011   2.00858   2.01626   2.02378   2.02829
 Alpha virt. eigenvalues --    2.03869   2.04173   2.04967   2.06182   2.06413
 Alpha virt. eigenvalues --    2.07136   2.07677   2.08025   2.08215   2.08808
 Alpha virt. eigenvalues --    2.09302   2.09585   2.10405   2.11319   2.11559
 Alpha virt. eigenvalues --    2.12719   2.13220   2.13387   2.14037   2.14663
 Alpha virt. eigenvalues --    2.14877   2.16085   2.16568   2.16983   2.17531
 Alpha virt. eigenvalues --    2.19346   2.19704   2.20089   2.20792   2.21198
 Alpha virt. eigenvalues --    2.21349   2.21838   2.22483   2.23644   2.23996
 Alpha virt. eigenvalues --    2.25019   2.25334   2.25570   2.26297   2.27011
 Alpha virt. eigenvalues --    2.27563   2.27862   2.28760   2.29986   2.30789
 Alpha virt. eigenvalues --    2.31467   2.32139   2.32551   2.33696   2.34000
 Alpha virt. eigenvalues --    2.34134   2.34777   2.35293   2.36564   2.37113
 Alpha virt. eigenvalues --    2.37722   2.38490   2.38688   2.38945   2.39785
 Alpha virt. eigenvalues --    2.40059   2.40528   2.40938   2.41467   2.42311
 Alpha virt. eigenvalues --    2.42632   2.43160   2.44482   2.45016   2.45819
 Alpha virt. eigenvalues --    2.46288   2.46421   2.47007   2.47787   2.47918
 Alpha virt. eigenvalues --    2.48889   2.49698   2.50041   2.50501   2.51864
 Alpha virt. eigenvalues --    2.51993   2.52422   2.53103   2.53218   2.53582
 Alpha virt. eigenvalues --    2.54683   2.54769   2.55348   2.55582   2.56236
[...]
 0.00020196,-0.00000047,-0.00000131,0.00005647,0.00025257,0.00149159,-0
 .00094345,-0.00004215,-0.00390892,0.00273902,0.00377528,0.00009705,-0.
 00005550,-0.00002872,0.00002034,0.00007474,0.00003927,-0.00006207,-0.0
 0003310,-0.00003590,-0.00004248,0.00005772,-0.00013101,0.00001164,-0.0
 0004405,-0.00000390,-0.00001500,0.00022984,-0.00009516,0.00069914,0.00
 120123,-0.00156300,-0.00363222,-0.00412748,-0.00197052,-0.00032245,-0.
 00080008,0.00034732,-0.00012210,0.00024274,0.00010197,0.00010708,-0.00
 007445,0.00007819,-0.00058773,0.00083145,-0.00149184,0.00054835,-0.001
 63955,0.00040556,-0.00124531,0.00183803,-0.00527047,0.06456568,0.00001
 140,-0.00000022,0.00001941,0.00000405,-0.00000257,0.00000148,0.0000034
 6,0.00000269,-0.00000014,0.00000206,0.00000546,-0.00000143,-0.00000796
 ,0.00001463,-0.00000386,0.00002337,0.00001156,-0.00000916,-0.00001051,
 -0.00008646,0.00001011,-0.00001061,0.00001432,-0.00001059,0.00000935,0
 .00000021,0.00000581,0.00000893,0.00000054,-0.00000015,-0.00000072,-0.
 00000254,0.00000785,-0.00000523,0.00000277,0.00000495,0.00000236,0.000
 00062,0.00000625,0.00001584,0.00001133,-0.00001180,0.00000314,-0.00000
 743,0.00000188,-0.00000069,-0.00000415,-0.00000113,-0.00000415,0.00000
 135,0.00000081,-0.00000168,-0.00000065,0.00000169,-0.00000342,-0.00000
 381,-0.00000050,-0.00002445,-0.00001205,0.00001198,-0.00000907,0.00000
 483,-0.00000741,-0.00000833,-0.00000378,0.00000202,-0.00000377,-0.0000
 0435,0.00000065,-0.00000154,0.00000175,-0.00000080,0.00000385,-0.00000
 096,-0.00000097,-0.00000159,-0.00000189,0.00000100,-0.00000003,-0.0000
 0288,-0.00000008,-0.00000150,-0.00000011,-0.00000175,-0.00000084,0.000
 00021,-0.00000109,0.00000348,-0.00000085,0.00000253,-0.00000236,0.0000
 0945,-0.00000811,0.00000598,0.00000150,0.00000229,0.00000117,-0.000002
 87,0.00000042,0.00002661,0.00001226,0.00024017,-0.00068095,-0.00000443
 ,-0.00027008,-0.00238025,0.00584229,-0.01345654,0.02017720,-0.09815023
 ,0.10072174,-0.00100575,0.00159497,-0.00453007,-0.00018277,0.00016387,
 0.00025965,0.00000624,-0.00003194,-0.00000235,0.00018721,0.00001410,-0
 .00016452,-0.00029015,0.00066332,0.00016095,0.00038502,0.00013720,-0.0
 0045999,-0.00001030,-0.00000264,0.00002656,0.00000269,-0.00001915,-0.0
 0000025,-0.00000401,-0.00001645,0.00002369,0.00000034,-0.00001277,0.00
 004246,-0.00003456,-0.00003039,0.00001874,0.00020133,-0.00021662,-0.00
 005072,0.00003960,0.00090262,-0.00083628,-0.00109048,-0.00107090,-0.00
 064391,-0.00009874,-0.00011364,0.00009084,0.00013385,-0.00010081,0.000
 20932,-0.00000233,-0.00011812,-0.00004396,-0.00031709,0.00045686,-0.00
 038083,-0.00021405,0.00041051,-0.00001234,0.00493749,-0.01099899,0.028
 10835,-0.01963137,0.10049792,0.00001816,0.00000224,0.00002287,0.000012
 26,-0.00000576,0.00000777,-0.00000016,0.00000517,0.00000359,0.00000931
 ,0.00000183,-0.00001171,-0.00002359,0.00000971,-0.00000370,0.00003033,
 -0.00000067,-0.00001613,-0.00001183,0.00000869,-0.00012629,0.00001305,
 0.00004919,-0.00001873,0.00000203,-0.00001138,0.00000481,0.00001685,0.
 00000344,0.00000212,-0.00000729,-0.00000003,0.00002506,0.00000165,-0.0
 0000944,0.00001388,-0.00000034,-0.00001144,-0.00001013,-0.00002146,0.0
 0002728,-0.00004017,0.00000219,-0.00001442,0.00000998,-0.00000122,-0.0
 0001204,0.00000289,-0.00000376,-0.00000212,0.00000116,-0.00000234,0.00
 000006,0.00000108,-0.00000179,0.00000375,0.00001108,-0.00003276,-0.000
 02514,0.00000666,-0.00002792,-0.00001412,0.00000118,-0.00000308,0.0000
 0527,0.00002700,-0.00000339,-0.00000806,-0.00000004,-0.00000549,-0.000
 00329,0.00000137,-0.00000364,-0.00000145,0.00000301,0.00000510,-0.0000
 0161,-0.00000471,0.00002385,-0.00000956,0.00003964,-0.00000050,0.00000
 301,-0.00000228,-0.00000536,-0.00000558,-0.00000197,0.00000648,0.00000
 130,0.00000222,-0.00002611,-0.00002707,0.00001014,-0.00000250,-0.00001
 086,-0.00000043,0.00000440,0.00000465,0.00000390,0.00002260,-0.0005355
 2,0.00053266,0.00016411,0.00057414,0.00028863,-0.00376917,0.00699580,-
 0.01398863,-0.03998186,0.09897829,-0.26019078,-0.00160736,0.00756955,-
 0.01508118,-0.00004157,0.00043707,-0.00041408,0.00003187,-0.00018016,-
 0.00006131,-0.00007141,-0.00008574,-0.00048562,-0.00029276,0.00025898,
 0.00122285,0.00232393,-0.00139171,-0.00127998,-0.00003199,0.00003483,0
 .00003459,-0.00000724,-0.00006210,-0.00004743,0.00003115,0.00000500,0.
 00010784,-0.00000598,-0.00004324,0.00014663,-0.00003087,0.00004229,0.0
 0017590,0.00022903,-0.00032349,0.00021610,0.00190958,0.00077788,0.0009
 7712,-0.00140901,-0.00267203,0.00005816,-0.00041122,-0.00031560,0.0007
 7278,-0.00023138,-0.00014120,-0.00002971,0.00014320,-0.00001308,0.0001
 3277,-0.00036884,0.00055548,-0.00052955,-0.00023709,0.00036092,0.00000
 229,0.00064195,-0.00178911,0.00509469,0.04271066,-0.10884217,0.2821329
 6,0.00001139,0.00000534,-0.00001421,0.00003098,-0.00001992,0.00000200,
 0.00003137,-0.00001522,-0.00003930,0.00008474,-0.00007409,0.00009424,0
 .00002933,0.00003021,-0.00035013,0.00000117,-0.00001348,0.00004128,-0.
 00050048,0.00022410,0.00093146,0.00027931,0.00003865,0.00013913,-0.001
 03126,-0.00068543,-0.00105702,-0.00058179,-0.00046631,-0.00062401,0.00
 008859,-0.00029690,-0.00001080,-0.00000323,0.00023902,0.00021894,-0.00
 040769,0.00016606,-0.00046751,-0.00114873,-0.00029868,-0.00097102,-0.0
 0011439,0.00005169,0.00004499,0.00000694,-0.00001009,0.00000996,0.0000
 0645,-0.00000807,-0.00000156,0.00001671,-0.00001747,-0.00000124,-0.000
 01181,0.00000790,-0.00000979,-0.00003478,0.00003273,-0.00004395,0.0001
 2410,0.00089398,-0.00011199,-0.00000236,0.00001384,0.00009498,0.000088
 55,0.00012438,0.00004375,0.00007670,0.00005284,0.00001070,0.00006674,0
 .00001068,0.00000807,0.00006855,-0.00000176,0.00003870,0.00010101,0.00
 000165,0.00011621,0.00001089,0.00002238,0.00004929,-0.00000265,-0.0000
 1056,-0.00001533,-0.00002952,-0.00000427,-0.00003020,0.00023828,0.0000
 4075,-0.00005133,-0.00001200,-0.00002011,-0.00000900,-0.00009010,-0.00
 001790,-0.00011974,0.00084963,0.00009592,0.00030584,0.00097975,-0.0004
 8703,-0.00087571,-0.01849908,-0.01149830,-0.01154289,-0.00196772,0.000
 05845,0.00353349,-0.00087715,-0.00065193,-0.00034759,-0.00042832,-0.00
 043529,-0.00028459,0.00011740,0.00010398,-0.00000913,0.00004059,0.0000
 5878,-0.00000450,-0.00023195,0.00004622,0.00022038,-0.00012124,0.00025
 520,-0.00011300,0.00004222,0.00000241,-0.00003059,-0.00001755,0.000026
 89,0.00005317,-0.00001989,-0.00001677,0.00001797,-0.00003149,0.0000238
 3,0.00000325,0.00003513,-0.00000350,-0.00000130,-0.00000173,-0.0000275
 3,0.00001624,-0.19918670,-0.09805336,-0.09338376,0.00070472,0.00075387
 ,-0.00127166,-0.00725465,-0.00477155,-0.00362704,0.01016201,0.00622869
 ,0.00618863,0.00010687,0.00038841,0.00001726,0.00050478,-0.00010435,0.
 00047096,0.00004478,-0.00014028,0.00013213,-0.00020011,-0.00027569,-0.
 00001204,0.00018120,0.00014026,0.00032833,0.21769258,-0.00000288,-0.00
 000476,0.00001062,-0.00001091,0.00000815,0.00000119,-0.00000501,0.0000
 0853,0.00000375,-0.00001849,0.00001381,-0.00002244,0.00000136,-0.00003
 835,0.00008284,-0.00000854,0.00000383,-0.00002761,0.00044263,-0.000548
 69,-0.00044048,0.00002123,0.00006550,-0.00002186,-0.00095870,-0.000021
 71,-0.00073192,-0.00037489,-0.00055480,-0.00041292,-0.00016529,0.00006
 365,0.00021553,0.00018985,0.00000254,-0.00013955,0.00030701,-0.0003351
 6,-0.00035616,-0.00048211,-0.00011541,0.00011454,0.00001442,-0.0000287
 2,-0.00000859,-0.00000466,0.00000613,-0.00000412,-0.00000261,0.0000021
 2,0.00000085,-0.00000471,0.00000420,0.00000002,-0.00000037,-0.00000389
 ,-0.00000037,0.00001733,0.00001479,0.00003631,0.00096391,-0.00173774,-
 0.00065368,-0.00000983,-0.00000194,0.00001386,0.00000151,-0.00007216,0
 .00000857,0.00001258,-0.00001800,0.00000703,0.00004793,-0.00001804,0.0
 0002251,0.00008226,-0.00002991,0.00003513,0.00007676,-0.00001952,0.000
 09357,0.00000280,-0.00000231,-0.00001343,-0.00000394,0.00000435,-0.000
 00094,0.00001827,-0.00000010,0.00002337,-0.00005239,-0.00003583,-0.000
 10152,0.00001401,-0.00000042,0.00001779,0.00002194,-0.00000619,0.00003
 433,-0.00028841,0.00019101,0.00037797,0.00004728,-0.00004767,0.0003187
 3,-0.00391371,-0.00427134,-0.00277310,-0.00055175,0.00092978,0.0015326
 3,-0.00041002,0.00003485,-0.00043889,-0.00003239,-0.00013150,0.0000409
 1,-0.00003157,0.00003477,-0.00001877,0.00000712,0.00001204,0.00005137,
 -0.00014874,0.00002314,0.00013603,0.00002939,0.00008193,-0.00013383,-0
 .00000108,-0.00000812,0.00000880,0.00000972,-0.00000101,0.00001155,-0.
 00000359,0.00000311,0.00001079,0.00000173,0.00001076,-0.00000665,-0.00
 000146,-0.00000313,-0.00001251,-0.00001875,-0.00000504,-0.00000313,-0.
 09788677,-0.10821232,-0.05828490,-0.00009501,0.00000871,-0.00057829,0.
 01511897,0.00999960,0.00831732,-0.02069250,-0.01275002,-0.01210020,0.0
 0023835,0.00012232,0.00001684,-0.00001735,0.00005715,0.00058579,0.0000
 2797,-0.00004673,0.00006229,0.00035239,0.00023835,-0.00004778,-0.00001
 907,0.00000574,-0.00025230,0.10824288,0.11724769,-0.00000028,0.0000035
 2,-0.00002076,0.00000405,-0.00000237,-0.00000674,0.00001164,-0.0000110
 7,-0.00001054,0.00001285,-0.00000971,0.00003121,0.00004416,0.00001416,
 -0.00013783,-0.00002141,0.00002325,0.00005799,-0.00013105,-0.00087034,
 0.00016977,0.00006844,-0.00008756,-0.00005008,-0.00125003,-0.00073777,
 -0.00070693,-0.00046649,-0.00011379,-0.00005808,0.00019502,0.00007811,
 -0.00026548,0.00026544,-0.00006372,-0.00022116,-0.00019521,-0.00010519
 ,-0.00009129,-0.00116591,-0.00004882,-0.00065295,-0.00002267,0.0000254
 1,-0.00003965,-0.00000135,-0.00000385,0.00000165,0.00000215,-0.0000015
 9,-0.00000226,0.00000331,-0.00000324,0.00000079,0.00000135,-0.00000257
 ,-0.00000688,-0.00003431,0.00000365,-0.00002921,0.00044567,-0.00059531
 ,-0.00006964,0.00000548,0.00003620,-0.00009419,0.00004391,0.00004995,0
 .00000342,0.00006997,0.00003463,-0.00002140,0.00005478,0.00001561,-0.0
 0000516,0.00004158,-0.00000422,-0.00000556,0.00005254,0.00003616,-0.00
 001662,0.00000544,0.00000695,0.00000928,0.00001635,0.00001808,0.000014
 42,0.00000080,-0.00000188,0.00000630,0.00015240,-0.00008986,-0.0001893
 9,0.00000082,0.00003119,0.00001678,-0.00003968,-0.00001809,-0.00004733
 ,-0.00057692,0.00033748,0.00026206,-0.00117847,0.00026801,0.00090212,0
 .01676949,0.01244857,0.01068520,0.00254231,0.00044175,-0.00310907,0.00
 129540,0.00032448,0.00057868,0.00015168,0.00031504,0.00019244,-0.00005
 985,-0.00006109,0.00001419,-0.00001838,-0.00005229,-0.00004687,0.00032
 147,-0.00007276,-0.00025397,-0.00003980,-0.00020475,0.00026693,-0.0000
 2000,0.00000456,0.00002082,0.00000508,-0.00001231,-0.00002542,0.000007
 81,0.00001082,-0.00000819,0.00000657,-0.00001728,0.00001003,-0.0000205
 7,0.00000703,0.00001091,0.00001718,0.00000998,-0.00000008,-0.09546822,
 -0.05979156,-0.10441418,0.00041312,-0.00011594,0.00146776,-0.01564868,
 -0.01201601,-0.01004466,-0.00893807,-0.00489881,-0.00614005,-0.0000795
 9,-0.00014812,0.00012787,0.00004036,0.00013012,-0.00050960,-0.00003910
 ,0.00010190,-0.00010612,0.00006178,0.00007495,0.00000789,0.00027257,-0
 .00016365,0.00015690,0.10214083,0.06542514,0.11240772,0.00002928,-0.00
 000713,0.00000566,-0.00000524,-0.00000180,0.00002278,-0.00000783,0.000
 01818,-0.00001635,0.00004041,-0.00000849,-0.00001573,-0.00003126,-0.00
 003087,0.00002439,0.00000164,0.00001690,0.00000820,0.00003077,-0.00009
 568,0.00004621,0.00003757,0.00010179,-0.00011856,0.00011324,-0.0001181
 2,-0.00006174,0.00001332,0.00005487,-0.00007787,-0.00004612,0.00007334
 ,0.00001803,-0.00001408,-0.00004949,0.00009552,0.00007236,0.00004136,0
 .00000852,0.00012342,0.00013670,0.00009761,-0.00002763,-0.00005816,0.0
 0006485,-0.00000132,-0.00000018,-0.00000230,-0.00000373,0.00000023,-0.
 00000002,-0.00000205,-0.00000173,0.00000029,-0.00000840,-0.00000870,-0
 .00000530,-0.00001088,-0.00001141,0.00000881,-0.00001624,0.00003036,0.
 00000042,0.00001759,0.00001563,0.00014643,-0.00000115,0.00000344,-0.00
 000799,-0.00000407,0.00000908,0.00000206,0.00000343,-0.00000135,-0.000
 00345,-0.00006262,0.00002766,-0.00000195,0.00004922,0.00001003,-0.0001
 1279,0.00000068,0.00000706,0.00000292,-0.00002056,-0.00001871,-0.00002
 433,0.00000151,0.00000049,-0.00000542,-0.00002551,0.00005256,0.0000164
 5,0.00002198,-0.00001848,0.00001428,-0.00000073,0.00000154,0.00000071,
 0.00073676,-0.00166098,0.00042392,-0.00130793,0.00252459,-0.00368943,-
 0.00713367,0.01051028,0.00501537,0.00033473,0.00065670,0.00098023,-0.0
 0016579,-0.00010819,0.00018354,0.00090229,0.00004365,0.00008785,0.0000
 4055,-0.00016485,0.00024861,-0.00007870,-0.00011575,-0.00002418,-0.000
 02884,0.00001211,-0.00001019,0.00006768,0.00024377,-0.00018182,-0.0000
 8710,0.00008182,0.00000266,-0.00008860,0.00006086,-0.00005515,-0.00006
 929,0.00006855,-0.00023545,0.00002652,-0.00003835,-0.00000010,-0.00007
 282,0.00000203,0.00000130,0.00000514,0.00002799,-0.00001844,0.00013732
 ,-0.00043049,0.00072295,-0.08938438,0.09129585,0.03876106,-0.00010861,
 -0.00020061,-0.00008723,0.00045498,-0.00028946,0.00010229,-0.00871683,
 0.01977975,0.00676005,0.01087473,-0.01974587,-0.00762022,0.00007827,-0
 .00031633,-0.00000595,-0.00042434,-0.00034902,-0.00052810,0.00017332,-
 0.00029502,0.00000023,-0.00001515,-0.00009410,-0.00012778,0.09358274,-
 0.00001271,0.00001644,-0.00000171,0.00001989,-0.00001519,-0.00001068,0
 .00000406,-0.00000633,0.00002302,-0.00002424,-0.00000369,0.00003806,-0
 .00009773,-0.00009838,0.00003517,0.00003010,-0.00005734,-0.00004477,0.
 00036023,0.00060563,-0.00022810,0.00009951,0.00008439,-0.00011610,0.00
 013104,-0.00013612,-0.00012810,-0.00000469,0.00004975,-0.00004198,-0.0
 0004024,0.00006119,0.00001799,-0.00001341,-0.00003692,0.00012937,0.000
 05169,0.00002312,-0.00001276,-0.00003171,0.00008163,0.00006233,-0.0000
 6617,-0.00002465,0.00007505,0.00000888,-0.00000478,0.00000725,0.000004
 40,-0.00000238,0.00000121,0.00000702,-0.00000353,-0.00000194,-0.000003
 79,0.00001330,0.00000545,0.00000579,0.00000570,-0.00000851,-0.00001103
 ,-0.00006825,0.00005251,0.00001771,-0.00001625,0.00014803,0.00000937,0
 .00002594,-0.00001889,-0.00000822,0.00000806,0.00000129,-0.00001143,-0
 .00000297,-0.00000111,-0.00010414,0.00001512,-0.00000244,-0.00001968,-
 0.00009634,-0.00009168,0.00000687,0.00001243,0.00002200,-0.00001812,-0
 .00002287,-0.00002611,-0.00002021,0.00000194,-0.00002382,-0.00001764,-
 0.00003627,0.00008966,-0.00002707,-0.00004548,-0.00002623,-0.00001228,
 0.00002332,0.00000084,0.00057527,0.00015143,0.00063481,0.00132924,-0.0
 0261105,0.00243276,0.00593764,-0.01424412,-0.00797854,-0.00060535,0.00
 034650,-0.00063366,-0.00011344,0.00018955,-0.00003945,-0.00097653,-0.0
 0047020,0.00036954,0.00002736,0.00008802,0.00007412,0.00024922,0.00014
 071,-0.00009762,-0.00002149,0.00004432,0.00002687,0.00019810,-0.000011
 51,0.00005442,0.00001015,0.00002099,-0.00004335,-0.00005151,0.00003413
 ,0.00001215,-0.00003644,-0.00002597,-0.00006122,-0.00004036,0.00003147
 ,-0.00000023,0.00011813,-0.00003548,0.00002655,-0.00002350,-0.00000030
 ,-0.00000879,0.00003608,0.00023243,-0.00094086,0.09123264,-0.23827451,
 -0.07950050,-0.00013000,0.00044225,0.00003836,-0.00035651,0.00024317,0
 .00074515,-0.00346880,0.00774117,0.00278867,0.00733046,-0.01337893,-0.
 00484618,0.00005056,-0.00002985,-0.00000416,0.00025874,0.00058605,0.00
 012680,-0.00011570,0.00023981,0.00010566,0.00004386,-0.00012801,0.0000
 4879,-0.10166987,0.25832773,0.00003651,-0.00001246,0.00000315,-0.00000
 772,-0.00000012,0.00002643,-0.00001782,0.00001719,-0.00001245,0.000038
 17,-0.00001736,-0.00002636,-0.00003979,-0.00004632,0.00002515,0.000002
 83,0.00001955,0.00001096,0.00003758,-0.00007059,0.00015499,0.00005832,
 0.00012223,-0.00007422,0.00005232,-0.00007695,-0.00006557,-0.00001478,
 0.00004776,-0.00003571,-0.00002404,0.00004178,0.00000173,-0.00001534,-
 0.00002678,0.00003207,0.00001358,-0.00003365,-0.00004540,-0.00005913,0
 .00003322,0.00009760,-0.00001438,-0.00004649,0.00004846,-0.00000044,-0
 .00000075,0.00000085,-0.00000038,-0.00000175,0.00000153,-0.00000031,0.
 00000152,-0.00000103,-0.00000137,0.00000525,0.00000740,-0.00001066,-0.
 00000577,0.00000557,-0.00002281,-0.00002030,0.00000605,0.00005917,0.00
 002537,0.00011028,0.00000334,0.00000474,-0.00000748,-0.00000093,0.0000
 0636,0.00000368,0.00000817,0.00000175,0.00000109,-0.00003387,-0.000000
 56,0.00002462,0.00001231,-0.00007407,-0.00007023,0.00000396,0.00000720
 ,0.00000218,-0.00001987,-0.00001593,-0.00001683,-0.00000419,0.00000222
 ,-0.00000462,0.00000007,0.00004653,-0.00001240,0.00001482,-0.00001906,
 0.00002029,-0.00000228,0.00001272,0.00000067,0.00038671,-0.00154340,0.
 00040673,-0.00382117,0.00498082,-0.00402509,-0.01008410,0.02070883,0.0
 0868394,0.00041625,0.00039988,0.00120173,-0.00008463,-0.00006516,0.000
 00038,0.00077526,0.00044816,-0.00053012,-0.00013066,0.00011931,-0.0003
 2467,-0.00021352,-0.00009029,0.00013114,-0.00001292,0.00000226,0.00001
 693,-0.00002042,-0.00017669,-0.00009910,0.00008856,-0.00008701,0.00009
 946,0.00007067,-0.00004559,0.00002636,-0.00003111,-0.00008159,0.000257
 84,0.00003648,-0.00003293,-0.00000299,-0.00011647,0.00001470,-0.000041
 92,0.00002872,-0.00001402,0.00003009,-0.00006694,-0.00004796,0.0004678
 8,0.03942151,-0.08160583,-0.07967494,-0.00006338,-0.00024967,0.0003004
 7,0.00013173,0.00038523,-0.00063087,0.00677426,-0.01853526,-0.00721414
 ,0.00703792,-0.01092050,-0.00570367,-0.00001271,0.00013869,0.00010175,
 -0.00014300,-0.00027510,-0.00007318,0.00025851,-0.00006700,0.00009030,
 0.00015979,-0.00003197,-0.00001581,-0.04083636,0.08674563,0.08630904\\
 0.00000076,-0.00000067,0.00000027,-0.00000012,0.00000023,0.00000280,-0
 .00000033,-0.00000014,0.00000147,-0.00000190,0.00000085,0.00000078,0.0
 0000293,-0.00000376,0.00000714,-0.00000168,0.00000220,-0.00000192,0.00
 000330,0.00000510,-0.00000269,0.00000360,0.00000156,-0.00000084,-0.000
 00239,0.00000012,0.00000034,-0.00000182,0.00000111,0.00000123,0.000001
 27,-0.00000246,-0.00000314,-0.00000094,0.00000324,-0.00000210,-0.00000
 132,-0.00000054,0.00000075,0.00000250,-0.00000315,-0.00000171,-0.00000
 184,-0.00000031,0.,-0.00000053,0.00000148,0.00000161,-0.00000008,0.000
 00071,0.00000182,0.00000036,-0.00000038,0.00000184,-0.00000030,-0.0000
 0083,0.00000052,-0.00000040,0.00000012,0.00000106,-0.00000117,-0.00000
 087,-0.00000009,0.00000037,-0.00000151,-0.00000037,0.00000014,-0.00000
 024,0.00000026,-0.00000025,0.00000074,-0.00000040,-0.00000044,0.000000
 59,-0.00000142,0.00000009,0.00000006,-0.00000180,0.00000003,-0.0000002
 2,-0.00000093,0.00000133,-0.00000112,0.00000024,0.00000013,-0.00000091
 ,-0.00000032,0.00000105,-0.00000106,-0.00000013,-0.00000142,-0.0000025
 7,-0.00000060,0.00000096,-0.00000062,0.00000118,0.00000004,-0.00000074
 ,0.00000013,-0.00000084,0.00000014,0.00000193,0.00000083,0.00000784,-0
 .00000175,0.00000013,-0.00000301,-0.00000645,0.00000194,-0.00000094,0.
 00000059,0.00000031,0.00000184,0.00000108,-0.00000266,-0.00000427,0.00
 000193,0.00000114,0.00000042,-0.00000041,0.00000343,0.00000140,0.00000
 076,-0.00000047,-0.00000025,-0.00000030,-0.00000080,0.00000162,-0.0000
 0153,0.00000046,-0.00000051,-0.00000010,0.00000043,0.00000079,0.000001
 21,-0.00000137,0.00000065,0.00000085,-0.00000013,0.00000121,0.00000153
 ,-0.00000048,-0.00000037,0.00000092,-0.00000014,0.00000054,0.00000058,
 -0.00000492,-0.00000031,0.00000040,0.00000185,-0.00000280,-0.00000108,
 -0.00000001,0.00000033,-0.00000037,-0.00000006,0.00000162,-0.00000010,
 0.00000083,-0.00000100,-0.00000088,-0.00000063,-0.00000040,-0.00000022
 ,0.00000037,-0.00000254,0.00000079,-0.00000062,0.00000039,-0.00000191,
 -0.00000006,0.00000091,-0.00000039,0.00000088,0.00000035,-0.00000013,-
 0.00000138,0.00000034,-0.00000193\\\@
 The archive entry for this job was punched.


 You don't have to suffer to be a poet.
 Adolescence is enough suffering for anyone.
                             -- John Ciardi
 Job cpu time:      10 days  4 hours 13 minutes 58.7 seconds.
 Elapsed time:       0 days 12 hours 12 minutes 58.6 seconds.
 File lengths (MBytes):  RWF=   4615 Int=      0 D2E=      0 Chk=     91 Scr=      1
 Normal termination of Gaussian 16 at Thu Jan  9 22:51:15 2025.
