 Entering Gaussian System, Link 0=g16
 Input=gjfs/data_set_12-catalyst-24.gjf
 Output=gjfs/data_set_12-catalyst-24.log
 Initial command:
 /usr/local/intel/g16/l1.exe "/scr/Gau-4139203.inp" -scrdir="/scr/"
 Entering Link 1 = /usr/local/intel/g16/l1.exe PID=   4139213.
  
 Copyright (c) 1988-2019, Gaussian, Inc.  All Rights Reserved.
  
 This is part of the Gaussian(R) 16 program.  It is based on
 the Gaussian(R) 09 system (copyright 2009, Gaussian, Inc.),
 the Gaussian(R) 03 system (copyright 2003, Gaussian, Inc.),
 the Gaussian(R) 98 system (copyright 1998, Gaussian, Inc.),
 the Gaussian(R) 94 system (copyright 1995, Gaussian, Inc.),
 the Gaussian 92(TM) system (copyright 1992, Gaussian, Inc.),
 the Gaussian 90(TM) system (copyright 1990, Gaussian, Inc.),
 the Gaussian 88(TM) system (copyright 1988, Gaussian, Inc.),
 the Gaussian 86(TM) system (copyright 1986, Carnegie Mellon
 University), and the Gaussian 82(TM) system (copyright 1983,
 Carnegie Mellon University). Gaussian is a federally registered
 trademark of Gaussian, Inc.
  
 This software contains proprietary and confidential information,
 including trade secrets, belonging to Gaussian, Inc.
  
 This software is provided under written license and may be
 used, copied, transmitted, or stored only in accord with that
 written license.
  
 The following legend is applicable only to US Government
 contracts under FAR:
  
                    RESTRICTED RIGHTS LEGEND
  
 Use, reproduction and disclosure by the US Government is
 subject to restrictions as set forth in subparagraphs (a)
 and (c) of the Commercial Computer Software - Restricted
 Rights clause in FAR 52.227-19.
  
 Gaussian, Inc.
 340 Quinnipiac St., Bldg. 40, Wallingford CT 06492
  
  
 ---------------------------------------------------------------
 Warning -- This program may not be used in any manner that
 competes with the business of Gaussian, Inc. or will provide
 assistance to any competitor of Gaussian, Inc.  The licensee
 of this program is prohibited from giving any competitor of
 Gaussian, Inc. access to this program.  By using this program,
 the user acknowledges that Gaussian, Inc. is engaged in the
 business of creating and licensing software in the field of
 computational chemistry and represents and warrants to the
 licensee that it is not a competitor of Gaussian, Inc. and that
 it will not use this program in any manner prohibited above.
 ---------------------------------------------------------------
  

 Cite this work as:
 Gaussian 16, Revision C.01,
 M. J. Frisch, G. W. Trucks, H. B. Schlegel, G. E. Scuseria, 
 M. A. Robb, J. R. Cheeseman, G. Scalmani, V. Barone, 
 G. A. Petersson, H. Nakatsuji, X. Li, M. Caricato, A. V. Marenich, 
 J. Bloino, B. G. Janesko, R. Gomperts, B. Mennucci, H. P. Hratchian, 
 J. V. Ortiz, A. F. Izmaylov, J. L. Sonnenberg, D. Williams-Young, 
 F. Ding, F. Lipparini, F. Egidi, J. Goings, B. Peng, A. Petrone, 
 T. Henderson, D. Ranasinghe, V. G. Zakrzewski, J. Gao, N. Rega, 
 G. Zheng, W. Liang, M. Hada, M. Ehara, K. Toyota, R. Fukuda, 
 J. Hasegawa, M. Ishida, T. Nakajima, Y. Honda, O. Kitao, H. Nakai, 
 T. Vreven, K. Throssell, J. A. Montgomery, Jr., J. E. Peralta, 
 F. Ogliaro, M. J. Bearpark, J. J. Heyd, E. N. Brothers, K. N. Kudin, 
 V. N. Staroverov, T. A. Keith, R. Kobayashi, J. Normand, 
 K. Raghavachari, A. P. Rendell, J. C. Burant, S. S. Iyengar, 
 J. Tomasi, M. Cossi, J. M. Millam, M. Klene, C. Adamo, R. Cammi, 
 J. W. Ochterski, R. L. Martin, K. Morokuma, O. Farkas, 
 J. B. Foresman, and D. J. Fox, Gaussian, Inc., Wallingford CT, 2019.
 
 ******************************************
 Gaussian 16:  ES64L-G16RevC.01  3-Jul-2019
                 7-Jan-2025 
 ******************************************
 %nprocshared=20
 Will use up to   20 processors via shared memory.
 %mem=30GB
 %chk=outputs/data_set_12-catalyst-24.chk
 ----------------------------------
 #p M062X/DEF2TZVP opt freq pop=NBO
 ----------------------------------
 1/18=20,19=15,26=3,38=1/1,3;
 2/9=110,12=2,17=6,18=5,40=1/2;
 3/5=44,7=101,11=2,25=1,30=1,71=1,74=-55/1,2,3;
 4//1;
 5/5=2,38=5/2;
 6/7=2,8=2,9=2,10=2,28=1,40=1/1,7;
 7//1,2,3,16;
 1/18=20,19=15,26=3/3(2);
 2/9=110/2;
 99//99;
 2/9=110/2;
 3/5=44,7=101,11=2,25=1,30=1,71=1,74=-55/1,2,3;
 4/5=5,16=3,69=1/1;
 5/5=2,38=5/2;
 7//1,2,3,16;
 1/18=20,19=15,26=3/3(-5);
 2/9=110/2;
 6/7=2,8=2,9=2,10=2,19=2,28=1,40=1/1,7;
 99/9=1/99;
 Leave Link    1 at Tue Jan  7 16:43:06 2025, MaxMem=  4026531840 cpu:               0.7 elap:               0.2
 (Enter /usr/local/intel/g16/l101.exe)
 -----------------------
 data_set_12-catalyst-24
 -----------------------
 Symbolic Z-matrix:
 Charge =  0 Multiplicity = 2
 O                    -0.00008  -2.06111  -0.08827 
 N                    -0.00003  -0.74398  -0.20546 
 C                    -1.32943  -0.07059  -0.02367 
 C                    -1.24976   1.39276  -0.51229 
 C                     0.00004   2.13287  -0.01763 
 C                     1.24977   1.39268  -0.51233 
 C                     1.32942  -0.07063  -0.02366 
 C                    -2.35999  -0.8371   -0.87371 
 C                    -1.74026  -0.14596   1.46664 
 C                     1.74027  -0.14597   1.46665 
 C                     2.36003  -0.83712  -0.87369 
 H                    -2.16258   1.90516  -0.18686 
 H                    -1.24999   1.3987   -1.61055 
 H                     0.00006   2.21101   1.07658 
 H                     0.00007   3.15783  -0.40427 
 H                     2.16265   1.90505  -0.18702 
 H                     1.24989   1.3985   -1.6106 
 H                    -2.48546  -1.85717  -0.50547 
 H                    -2.03372  -0.88763  -1.9175 
 H                    -3.32415  -0.31791  -0.83028 
 H                    -1.11555   0.49003   2.1013 
 H                    -1.65587  -1.1787    1.81787 
 H                    -2.7805    0.17884   1.57862 
 H                     2.78058   0.17862   1.57856 
 H                     1.6557   -1.17868   1.81795 
 H                     1.11571   0.49019   2.1013 
 H                     2.03375  -0.88773  -1.91748 
 H                     2.4856   -1.85717  -0.50541 
 H                     3.32415  -0.31785  -0.83031 
 
 ITRead=  0  0  0  0  0  0  0  0  0  0  0  0  0  0  0  0  0  0  0  0
 ITRead=  0  0  0  0  0  0  0  0  0
 MicOpt= -1 -1 -1 -1 -1 -1 -1 -1 -1 -1 -1 -1 -1 -1 -1 -1 -1 -1 -1 -1
 MicOpt= -1 -1 -1 -1 -1 -1 -1 -1 -1
 NAtoms=     29 NQM=       29 NQMF=       0 NMMI=      0 NMMIF=      0
                NMic=       0 NMicF=      0.
                    Isotopes and Nuclear Properties:
 (Nuclear quadrupole moments (NQMom) in fm**2, nuclear magnetic moments (NMagM)
  in nuclear magnetons)

  Atom         1           2           3           4           5           6           7           8           9          10
 IAtWgt=          16          14          12          12          12          12          12          12          12          12
 AtmWgt=  15.9949146  14.0030740  12.0000000  12.0000000  12.0000000  12.0000000  12.0000000  12.0000000  12.0000000  12.0000000
 NucSpn=           0           2           0           0           0           0           0           0           0           0
 AtZEff=  -0.0000000  -0.0000000  -0.0000000  -0.0000000  -0.0000000  -0.0000000  -0.0000000  -0.0000000  -0.0000000  -0.0000000
 NQMom=    0.0000000   2.0440000   0.0000000   0.0000000   0.0000000   0.0000000   0.0000000   0.0000000   0.0000000   0.0000000
 NMagM=    0.0000000   0.4037610   0.0000000   0.0000000   0.0000000   0.0000000   0.0000000   0.0000000   0.0000000   0.0000000
 AtZNuc=   8.0000000   7.0000000   6.0000000   6.0000000   6.0000000   6.0000000   6.0000000   6.0000000   6.0000000   6.0000000

  Atom        11          12          13          14          15          16          17          18          19          20
 IAtWgt=          12           1           1           1           1           1           1           1           1           1
 AtmWgt=  12.0000000   1.0078250   1.0078250   1.0078250   1.0078250   1.0078250   1.0078250   1.0078250   1.0078250   1.0078250
 NucSpn=           0           1           1           1           1           1           1           1           1           1
 AtZEff=  -0.0000000  -0.0000000  -0.0000000  -0.0000000  -0.0000000  -0.0000000  -0.0000000  -0.0000000  -0.0000000  -0.0000000
 NQMom=    0.0000000   0.0000000   0.0000000   0.0000000   0.0000000   0.0000000   0.0000000   0.0000000   0.0000000   0.0000000
 NMagM=    0.0000000   2.7928460   2.7928460   2.7928460   2.7928460   2.7928460   2.7928460   2.7928460   2.7928460   2.7928460
 AtZNuc=   6.0000000   1.0000000   1.0000000   1.0000000   1.0000000   1.0000000   1.0000000   1.0000000   1.0000000   1.0000000

  Atom        21          22          23          24          25          26          27          28          29
 IAtWgt=           1           1           1           1           1           1           1           1           1
 AtmWgt=   1.0078250   1.0078250   1.0078250   1.0078250   1.0078250   1.0078250   1.0078250   1.0078250   1.0078250
 NucSpn=           1           1           1           1           1           1           1           1           1
 AtZEff=  -0.0000000  -0.0000000  -0.0000000  -0.0000000  -0.0000000  -0.0000000  -0.0000000  -0.0000000  -0.0000000
 NQMom=    0.0000000   0.0000000   0.0000000   0.0000000   0.0000000   0.0000000   0.0000000   0.0000000   0.0000000
 NMagM=    2.7928460   2.7928460   2.7928460   2.7928460   2.7928460   2.7928460   2.7928460   2.7928460   2.7928460
 AtZNuc=   1.0000000   1.0000000   1.0000000   1.0000000   1.0000000   1.0000000   1.0000000   1.0000000   1.0000000
 Leave Link  101 at Tue Jan  7 16:43:08 2025, MaxMem=  4026531840 cpu:              16.5 elap:               1.0
 (Enter /usr/local/intel/g16/l103.exe)

 GradGradGradGradGradGradGradGradGradGradGradGradGradGradGradGradGradGrad
 Berny optimization.
 Initialization pass.
                           ----------------------------
                           !    Initial Parameters    !
                           ! (Angstroms and Degrees)  !
 --------------------------                            --------------------------
 ! Name  Definition              Value          Derivative Info.                !
 --------------------------------------------------------------------------------
 ! R1    R(1,2)                  1.3223         estimate D2E/DX2                !
 ! R2    R(2,3)                  1.5013         estimate D2E/DX2                !
 ! R3    R(2,7)                  1.5013         estimate D2E/DX2                !
 ! R4    R(3,4)                  1.5448         estimate D2E/DX2                !
 ! R5    R(3,8)                  1.5402         estimate D2E/DX2                !
 ! R6    R(3,9)                  1.5477         estimate D2E/DX2                !
 ! R7    R(4,5)                  1.5344         estimate D2E/DX2                !
 ! R8    R(4,12)                 1.0962         estimate D2E/DX2                !
 ! R9    R(4,13)                 1.0983         estimate D2E/DX2                !
 ! R10   R(5,6)                  1.5344         estimate D2E/DX2                !
 ! R11   R(5,14)                 1.097          estimate D2E/DX2                !
 ! R12   R(5,15)                 1.0955         estimate D2E/DX2                !
 ! R13   R(6,7)                  1.5448         estimate D2E/DX2                !
 ! R14   R(6,16)                 1.0962         estimate D2E/DX2                !
 ! R15   R(6,17)                 1.0983         estimate D2E/DX2                !
 ! R16   R(7,10)                 1.5477         estimate D2E/DX2                !
 ! R17   R(7,11)                 1.5402         estimate D2E/DX2                !
 ! R18   R(8,18)                 1.0917         estimate D2E/DX2                !
 ! R19   R(8,19)                 1.0948         estimate D2E/DX2                !
 ! R20   R(8,20)                 1.0959         estimate D2E/DX2                !
 ! R21   R(9,21)                 1.0943         estimate D2E/DX2                !
 ! R22   R(9,22)                 1.0941         estimate D2E/DX2                !
 ! R23   R(9,23)                 1.0955         estimate D2E/DX2                !
 ! R24   R(10,24)                1.0955         estimate D2E/DX2                !
 ! R25   R(10,25)                1.0941         estimate D2E/DX2                !
 ! R26   R(10,26)                1.0943         estimate D2E/DX2                !
 ! R27   R(11,27)                1.0948         estimate D2E/DX2                !
 ! R28   R(11,28)                1.0917         estimate D2E/DX2                !
 ! R29   R(11,29)                1.0959         estimate D2E/DX2                !
 ! A1    A(1,2,3)              115.8498         estimate D2E/DX2                !
 ! A2    A(1,2,7)              115.8525         estimate D2E/DX2                !
 ! A3    A(3,2,7)              124.6324         estimate D2E/DX2                !
 ! A4    A(2,3,4)              109.933          estimate D2E/DX2                !
 ! A5    A(2,3,8)              107.6046         estimate D2E/DX2                !
 ! A6    A(2,3,9)              109.257          estimate D2E/DX2                !
 ! A7    A(4,3,8)              109.3521         estimate D2E/DX2                !
 ! A8    A(4,3,9)              111.3693         estimate D2E/DX2                !
 ! A9    A(8,3,9)              109.2438         estimate D2E/DX2                !
 ! A10   A(3,4,5)              113.3872         estimate D2E/DX2                !
 ! A11   A(3,4,12)             107.8139         estimate D2E/DX2                !
 ! A12   A(3,4,13)             108.7477         estimate D2E/DX2                !
 ! A13   A(5,4,12)             110.9211         estimate D2E/DX2                !
 ! A14   A(5,4,13)             108.6588         estimate D2E/DX2                !
 ! A15   A(12,4,13)            107.1072         estimate D2E/DX2                !
 ! A16   A(4,5,6)              109.073          estimate D2E/DX2                !
 ! A17   A(4,5,14)             110.8505         estimate D2E/DX2                !
 ! A18   A(4,5,15)             109.7271         estimate D2E/DX2                !
 ! A19   A(6,5,14)             110.8504         estimate D2E/DX2                !
 ! A20   A(6,5,15)             109.7264         estimate D2E/DX2                !
 ! A21   A(14,5,15)            106.5834         estimate D2E/DX2                !
 ! A22   A(5,6,7)              113.3881         estimate D2E/DX2                !
 ! A23   A(5,6,16)             110.9223         estimate D2E/DX2                !
 ! A24   A(5,6,17)             108.6588         estimate D2E/DX2                !
 ! A25   A(7,6,16)             107.814          estimate D2E/DX2                !
 ! A26   A(7,6,17)             108.744          estimate D2E/DX2                !
 ! A27   A(16,6,17)            107.1086         estimate D2E/DX2                !
 ! A28   A(2,7,6)              109.9308         estimate D2E/DX2                !
 ! A29   A(2,7,10)             109.2589         estimate D2E/DX2                !
 ! A30   A(2,7,11)             107.6083         estimate D2E/DX2                !
 ! A31   A(6,7,10)             111.37           estimate D2E/DX2                !
 ! A32   A(6,7,11)             109.3492         estimate D2E/DX2                !
 ! A33   A(10,7,11)            109.2427         estimate D2E/DX2                !
 ! A34   A(3,8,18)             110.8391         estimate D2E/DX2                !
 ! A35   A(3,8,19)             110.4728         estimate D2E/DX2                !
 ! A36   A(3,8,20)             109.3303         estimate D2E/DX2                !
 ! A37   A(18,8,19)            108.2236         estimate D2E/DX2                !
 ! A38   A(18,8,20)            109.1587         estimate D2E/DX2                !
 ! A39   A(19,8,20)            108.7745         estimate D2E/DX2                !
 ! A40   A(3,9,21)             112.2473         estimate D2E/DX2                !
 ! A41   A(3,9,22)             109.5485         estimate D2E/DX2                !
 ! A42   A(3,9,23)             109.6356         estimate D2E/DX2                !
 ! A43   A(21,9,22)            108.5648         estimate D2E/DX2                !
 ! A44   A(21,9,23)            108.0881         estimate D2E/DX2                !
 ! A45   A(22,9,23)            108.6798         estimate D2E/DX2                !
 ! A46   A(7,10,24)            109.6344         estimate D2E/DX2                !
 ! A47   A(7,10,25)            109.5483         estimate D2E/DX2                !
 ! A48   A(7,10,26)            112.2492         estimate D2E/DX2                !
 ! A49   A(24,10,25)           108.6788         estimate D2E/DX2                !
 ! A50   A(24,10,26)           108.0883         estimate D2E/DX2                !
 ! A51   A(25,10,26)           108.565          estimate D2E/DX2                !
 ! A52   A(7,11,27)            110.4734         estimate D2E/DX2                !
 ! A53   A(7,11,28)            110.8406         estimate D2E/DX2                !
 ! A54   A(7,11,29)            109.3306         estimate D2E/DX2                !
 ! A55   A(27,11,28)           108.2226         estimate D2E/DX2                !
 ! A56   A(27,11,29)           108.7738         estimate D2E/DX2                !
 ! A57   A(28,11,29)           109.158          estimate D2E/DX2                !
 ! D1    D(1,2,3,4)           -166.5779         estimate D2E/DX2                !
 ! D2    D(1,2,3,8)            -47.5733         estimate D2E/DX2                !
 ! D3    D(1,2,3,9)             70.9247         estimate D2E/DX2                !
 ! D4    D(7,2,3,4)             35.9768         estimate D2E/DX2                !
 ! D5    D(7,2,3,8)            154.9814         estimate D2E/DX2                !
 ! D6    D(7,2,3,9)            -86.5207         estimate D2E/DX2                !
 ! D7    D(1,2,7,6)            166.5768         estimate D2E/DX2                !
 ! D8    D(1,2,7,10)           -70.9252         estimate D2E/DX2                !
 ! D9    D(1,2,7,11)            47.5747         estimate D2E/DX2                !
 ! D10   D(3,2,7,6)            -35.9784         estimate D2E/DX2                !
 ! D11   D(3,2,7,10)            86.5197         estimate D2E/DX2                !
 ! D12   D(3,2,7,11)          -154.9805         estimate D2E/DX2                !
 ! D13   D(2,3,4,5)            -45.8333         estimate D2E/DX2                !
 ! D14   D(2,3,4,12)          -169.0361         estimate D2E/DX2                !
 ! D15   D(2,3,4,13)            75.1565         estimate D2E/DX2                !
 ! D16   D(8,3,4,5)           -163.7608         estimate D2E/DX2                !
 ! D17   D(8,3,4,12)            73.0365         estimate D2E/DX2                !
 ! D18   D(8,3,4,13)           -42.771          estimate D2E/DX2                !
 ! D19   D(9,3,4,5)             75.4063         estimate D2E/DX2                !
 ! D20   D(9,3,4,12)           -47.7965         estimate D2E/DX2                !
 ! D21   D(9,3,4,13)          -163.6039         estimate D2E/DX2                !
 ! D22   D(2,3,8,18)            64.4584         estimate D2E/DX2                !
 ! D23   D(2,3,8,19)           -55.4945         estimate D2E/DX2                !
 ! D24   D(2,3,8,20)          -175.1663         estimate D2E/DX2                !
 ! D25   D(4,3,8,18)          -176.1659         estimate D2E/DX2                !
 ! D26   D(4,3,8,19)            63.8813         estimate D2E/DX2                !
 ! D27   D(4,3,8,20)           -55.7906         estimate D2E/DX2                !
 ! D28   D(9,3,8,18)           -54.0481         estimate D2E/DX2                !
 ! D29   D(9,3,8,19)          -174.0009         estimate D2E/DX2                !
 ! D30   D(9,3,8,20)            66.3272         estimate D2E/DX2                !
 ! D31   D(2,3,9,21)            69.9568         estimate D2E/DX2                !
 ! D32   D(2,3,9,22)           -50.7249         estimate D2E/DX2                !
 ! D33   D(2,3,9,23)          -169.9038         estimate D2E/DX2                !
 ! D34   D(4,3,9,21)           -51.6765         estimate D2E/DX2                !
 ! D35   D(4,3,9,22)          -172.3582         estimate D2E/DX2                !
 ! D36   D(4,3,9,23)            68.4629         estimate D2E/DX2                !
 ! D37   D(8,3,9,21)          -172.5729         estimate D2E/DX2                !
 ! D38   D(8,3,9,22)            66.7454         estimate D2E/DX2                !
 ! D39   D(8,3,9,23)           -52.4335         estimate D2E/DX2                !
 ! D40   D(3,4,5,6)             59.3148         estimate D2E/DX2                !
 ! D41   D(3,4,5,14)           -63.0076         estimate D2E/DX2                !
 ! D42   D(3,4,5,15)           179.5388         estimate D2E/DX2                !
 ! D43   D(12,4,5,6)          -179.2079         estimate D2E/DX2                !
 ! D44   D(12,4,5,14)           58.4697         estimate D2E/DX2                !
 ! D45   D(12,4,5,15)          -58.9838         estimate D2E/DX2                !
 ! D46   D(13,4,5,6)           -61.7251         estimate D2E/DX2                !
 ! D47   D(13,4,5,14)          175.9525         estimate D2E/DX2                !
 ! D48   D(13,4,5,15)           58.4989         estimate D2E/DX2                !
 ! D49   D(4,5,6,7)            -59.3182         estimate D2E/DX2                !
 ! D50   D(4,5,6,16)           179.2027         estimate D2E/DX2                !
 ! D51   D(4,5,6,17)            61.7175         estimate D2E/DX2                !
 ! D52   D(14,5,6,7)            63.0043         estimate D2E/DX2                !
 ! D53   D(14,5,6,16)          -58.4748         estimate D2E/DX2                !
 ! D54   D(14,5,6,17)         -175.96           estimate D2E/DX2                !
 ! D55   D(15,5,6,7)          -179.5426         estimate D2E/DX2                !
 ! D56   D(15,5,6,16)           58.9782         estimate D2E/DX2                !
 ! D57   D(15,5,6,17)          -58.507          estimate D2E/DX2                !
 ! D58   D(5,6,7,2)             45.8378         estimate D2E/DX2                !
 ! D59   D(5,6,7,10)           -75.4031         estimate D2E/DX2                !
 ! D60   D(5,6,7,11)           163.7667         estimate D2E/DX2                !
 ! D61   D(16,6,7,2)           169.0428         estimate D2E/DX2                !
 ! D62   D(16,6,7,10)           47.8019         estimate D2E/DX2                !
 ! D63   D(16,6,7,11)          -73.0283         estimate D2E/DX2                !
 ! D64   D(17,6,7,2)           -75.1499         estimate D2E/DX2                !
 ! D65   D(17,6,7,10)          163.6092         estimate D2E/DX2                !
 ! D66   D(17,6,7,11)           42.779          estimate D2E/DX2                !
 ! D67   D(2,7,10,24)          169.8932         estimate D2E/DX2                !
 ! D68   D(2,7,10,25)           50.7164         estimate D2E/DX2                !
 ! D69   D(2,7,10,26)          -69.9667         estimate D2E/DX2                !
 ! D70   D(6,7,10,24)          -68.4746         estimate D2E/DX2                !
 ! D71   D(6,7,10,25)          172.3486         estimate D2E/DX2                !
 ! D72   D(6,7,10,26)           51.6656         estimate D2E/DX2                !
 ! D73   D(11,7,10,24)          52.418          estimate D2E/DX2                !
 ! D74   D(11,7,10,25)         -66.7588         estimate D2E/DX2                !
 ! D75   D(11,7,10,26)         172.5581         estimate D2E/DX2                !
 ! D76   D(2,7,11,27)           55.4879         estimate D2E/DX2                !
 ! D77   D(2,7,11,28)          -64.465          estimate D2E/DX2                !
 ! D78   D(2,7,11,29)          175.1594         estimate D2E/DX2                !
 ! D79   D(6,7,11,27)          -63.8857         estimate D2E/DX2                !
 ! D80   D(6,7,11,28)          176.1614         estimate D2E/DX2                !
 ! D81   D(6,7,11,29)           55.7858         estimate D2E/DX2                !
 ! D82   D(10,7,11,27)         173.9981         estimate D2E/DX2                !
 ! D83   D(10,7,11,28)          54.0452         estimate D2E/DX2                !
 ! D84   D(10,7,11,29)         -66.3304         estimate D2E/DX2                !
 --------------------------------------------------------------------------------
 Trust Radius=3.00D-01 FncErr=1.00D-07 GrdErr=1.00D-06 EigMax=2.50D+02 EigMin=1.00D-04
 Number of steps in this run=    174 maximum allowed number of steps=    174.
 GradGradGradGradGradGradGradGradGradGradGradGradGradGradGradGradGradGrad

 Leave Link  103 at Tue Jan  7 16:43:08 2025, MaxMem=  4026531840 cpu:               0.5 elap:               0.1
 (Enter /usr/local/intel/g16/l202.exe)
                          Input orientation:                          
 ---------------------------------------------------------------------
 Center     Atomic      Atomic             Coordinates (Angstroms)
 Number     Number       Type             X           Y           Z
 ---------------------------------------------------------------------
      1          8           0       -0.000083   -2.061112   -0.088268
      2          7           0       -0.000025   -0.743984   -0.205461
      3          6           0       -1.329432   -0.070586   -0.023668
      4          6           0       -1.249759    1.392758   -0.512288
      5          6           0        0.000038    2.132873   -0.017626
      6          6           0        1.249765    1.392680   -0.512326
      7          6           0        1.329422   -0.070631   -0.023658
      8          6           0       -2.359993   -0.837104   -0.873710
      9          6           0       -1.740258   -0.145956    1.466640
     10          6           0        1.740267   -0.145969    1.466647
     11          6           0        2.360032   -0.837120   -0.873688
     12          1           0       -2.162583    1.905155   -0.186860
     13          1           0       -1.249986    1.398696   -1.610553
     14          1           0        0.000060    2.211012    1.076583
     15          1           0        0.000073    3.157831   -0.404273
     16          1           0        2.162647    1.905053   -0.187015
     17          1           0        1.249885    1.398500   -1.610597
     18          1           0       -2.485457   -1.857172   -0.505466
     19          1           0       -2.033720   -0.887628   -1.917499
     20          1           0       -3.324146   -0.317905   -0.830280
     21          1           0       -1.115545    0.490034    2.101296
     22          1           0       -1.655873   -1.178699    1.817868
     23          1           0       -2.780500    0.178843    1.578623
     24          1           0        2.780581    0.178619    1.578558
     25          1           0        1.655703   -1.178675    1.817947
     26          1           0        1.115713    0.490188    2.101300
     27          1           0        2.033749   -0.887727   -1.917479
     28          1           0        2.485602   -1.857174   -0.505412
     29          1           0        3.324148   -0.317845   -0.830312
 ---------------------------------------------------------------------
                    Distance matrix (angstroms):
                    1          2          3          4          5
     1  O    0.000000
     2  N    1.322331   0.000000
     3  C    2.394480   1.501278   0.000000
     4  C    3.697391   2.494322   1.544821   0.000000
     5  C    4.194580   2.882983   2.573472   1.534423   0.000000
     6  C    3.697381   2.494288   3.005360   2.499524   1.534416
     7  C    2.394530   1.501295   2.658854   3.005402   2.573466
     8  C    2.772055   2.454522   1.540187   2.517048   3.888880
     9  C    3.018902   2.486357   1.547733   2.554288   3.228736
    10  C    3.018998   2.486400   3.413176   3.901810   3.228712
    11  C    2.772216   2.454602   3.862933   4.258351   3.888865
    12  H    4.518562   3.419787   2.150424   1.096222   2.181152
    13  H    3.981191   2.850923   2.164095   1.098281   2.153832
    14  H    4.428083   3.221124   2.860733   2.180848   1.096995
    15  H    5.228501   3.906877   3.512139   2.165463   1.095461
    16  H    4.518586   3.419779   4.015526   3.465943   2.181163
    17  H    3.981058   2.850775   3.365922   2.730300   2.153829
    18  H    2.528385   2.739811   2.181837   3.476930   4.726112
    19  H    2.976379   2.662259   2.179490   2.790945   4.107203
    20  H    3.826062   3.409065   2.165796   2.707502   4.209147
    21  H    3.542145   2.843996   2.208057   2.768347   2.904010
    22  H    2.674630   2.650409   2.173875   3.493844   4.132504
    23  H    3.940386   3.430103   2.176040   2.861585   3.754682
    24  H    3.940406   3.430115   4.418307   4.699937   3.754774
    25  H    2.674692   2.650391   3.678374   4.525922   4.132421
    26  H    3.542364   2.844152   3.287657   3.638809   2.903961
    27  H    2.976461   2.662312   3.945279   4.237523   4.107243
    28  H    2.528681   2.739983   4.240101   4.951265   4.726144
    29  H    3.826241   3.409129   4.729442   4.893662   4.209060
                    6          7          8          9         10
     6  C    0.000000
     7  C    1.544804   0.000000
     8  C    4.258273   3.862881   0.000000
     9  C    3.901787   3.413151   2.517736   0.000000
    10  C    2.554284   1.547733   4.771485   3.480525   0.000000
    11  C    2.516999   1.540199   4.720025   4.771501   2.517730
    12  H    3.465931   4.015528   2.833852   2.668235   4.708868
    13  H    2.730365   3.366081   2.602663   3.477849   4.560347
    14  H    2.180840   2.860704   4.320244   2.955698   2.955644
    15  H    2.165448   3.512122   4.663667   4.176611   4.176567
    16  H    1.096224   2.150413   5.333409   4.708915   2.668275
    17  H    1.098286   2.164035   4.309541   4.560229   3.477828
    18  H    4.951108   4.239949   1.091734   2.715287   4.967312
    19  H    4.237404   3.945230   1.094761   3.476866   5.123034
    20  H    4.893655   4.729427   1.095922   2.795373   5.563606
    21  H    3.638747   3.287497   3.487206   1.094321   2.993817
    22  H    4.525983   3.678453   2.803046   1.094093   3.567023
    23  H    4.699841   4.418258   2.687548   1.095508   4.533804
    24  H    2.861667   2.176025   5.785396   4.533857   1.095507
    25  H    3.493827   2.173874   4.846391   3.566858   1.094095
    26  H    2.768303   2.208084   4.763709   2.994001   1.094325
    27  H    2.790939   2.179514   4.516302   5.123047   3.476873
    28  H    3.476908   2.181874   4.965479   4.967409   2.715283
    29  H    2.707411   2.165811   5.707974   5.563609   2.795396
                   11         12         13         14         15
    11  C    0.000000
    12  H    5.333465   0.000000
    13  H    4.309765   1.765286   0.000000
    14  H    4.320201   2.523264   3.072974   0.000000
    15  H    4.663624   2.508694   2.472310   1.757669   0.000000
    16  H    2.833724   4.325230   3.732147   2.523306   2.508661
    17  H    2.602587   3.732113   2.499871   3.072975   2.472346
    18  H    4.965366   3.789573   3.653530   5.023026   5.598067
    19  H    4.516320   3.288062   2.436336   4.764699   4.774087
    20  H    5.708007   2.589443   2.803156   4.591502   4.828318
    21  H    4.763560   2.886956   3.823815   2.292679   3.826176
    22  H    4.846508   3.712929   4.308338   3.844705   5.146412
    23  H    5.785420   2.545369   3.741839   3.480412   4.531869
    24  H    2.687396   5.525622   5.282470   3.480502   4.531947
    25  H    2.803148   5.301751   5.180780   3.844574   5.146325
    26  H    3.487209   4.240876   4.494416   2.292588   3.826077
    27  H    1.094770   5.329581   4.013085   4.764712   4.774115
    28  H    1.091744   5.988507   5.077070   5.023023   5.598067
    29  H    1.095923   5.954828   4.947524   4.591397   4.828178
                   16         17         18         19         20
    16  H    0.000000
    17  H    1.765309   0.000000
    18  H    5.988374   5.076760   0.000000
    19  H    5.329459   4.012808   1.771417   0.000000
    20  H    5.954849   4.947393   1.782764   1.780963   0.000000
    21  H    4.240895   4.494299   3.765799   4.346460   3.758300
    22  H    5.301903   5.180710   2.558597   3.765695   3.246042
    23  H    5.525575   5.282300   2.928453   3.730671   2.518953
    24  H    2.545519   3.741905   6.018202   6.044567   6.581545
    25  H    3.712983   4.308298   4.796646   5.258337   5.705517
    26  H    2.886919   3.823769   5.027301   5.288483   5.381405
    27  H    3.287969   2.436279   4.832890   4.067469   5.496702
    28  H    3.789463   3.653470   4.971059   4.833041   6.018975
    29  H    2.589245   2.803079   6.018851   5.496670   6.648294
                   21         22         23         24         25
    21  H    0.000000
    22  H    1.776782   0.000000
    23  H    1.772598   1.779029   0.000000
    24  H    3.943353   4.645611   5.561081   0.000000
    25  H    3.247259   3.311576   4.645431   1.779018   0.000000
    26  H    2.231258   3.247646   3.943425   1.772603   1.776790
    27  H    5.288367   5.258402   6.044609   3.730567   3.765764
    28  H    5.027183   4.796850   6.018338   2.928207   2.558728
    29  H    5.381252   5.705658   6.581519   2.518848   3.246231
                   26         27         28         29
    26  H    0.000000
    27  H    4.346496   0.000000
    28  H    3.765853   1.771421   0.000000
    29  H    3.758251   1.780962   1.782766   0.000000
 Stoichiometry    C9H18NO(2)
 Framework group  C1[X(C9H18NO)]
 Deg. of freedom    81
 Full point group                 C1      NOp   1
 Largest Abelian subgroup         C1      NOp   1
 Largest concise Abelian subgroup C1      NOp   1
                         Standard orientation:                         
 ---------------------------------------------------------------------
 Center     Atomic      Atomic             Coordinates (Angstroms)
 Number     Number       Type             X           Y           Z
 ---------------------------------------------------------------------
      1          8           0       -0.000083   -2.061112   -0.088268
      2          7           0       -0.000025   -0.743984   -0.205461
      3          6           0       -1.329432   -0.070586   -0.023668
      4          6           0       -1.249759    1.392758   -0.512288
      5          6           0        0.000038    2.132873   -0.017626
      6          6           0        1.249765    1.392680   -0.512326
      7          6           0        1.329422   -0.070631   -0.023658
      8          6           0       -2.359993   -0.837104   -0.873710
      9          6           0       -1.740258   -0.145956    1.466640
     10          6           0        1.740267   -0.145969    1.466647
     11          6           0        2.360032   -0.837120   -0.873688
     12          1           0       -2.162583    1.905155   -0.186860
     13          1           0       -1.249986    1.398696   -1.610553
     14          1           0        0.000060    2.211012    1.076583
     15          1           0        0.000073    3.157831   -0.404273
     16          1           0        2.162647    1.905053   -0.187015
     17          1           0        1.249885    1.398500   -1.610597
     18          1           0       -2.485457   -1.857172   -0.505466
     19          1           0       -2.033720   -0.887628   -1.917499
     20          1           0       -3.324146   -0.317905   -0.830280
     21          1           0       -1.115545    0.490034    2.101296
     22          1           0       -1.655873   -1.178699    1.817868
     23          1           0       -2.780500    0.178843    1.578623
     24          1           0        2.780581    0.178619    1.578558
     25          1           0        1.655703   -1.178675    1.817947
     26          1           0        1.115713    0.490188    2.101300
     27          1           0        2.033749   -0.887727   -1.917479
     28          1           0        2.485602   -1.857174   -0.505412
     29          1           0        3.324148   -0.317845   -0.830312
 ---------------------------------------------------------------------
 Rotational constants (GHZ):           1.4607764           1.0550507           0.8451316
 Leave Link  202 at Tue Jan  7 16:43:08 2025, MaxMem=  4026531840 cpu:               0.1 elap:               0.0
 (Enter /usr/local/intel/g16/l301.exe)
 Standard basis: def2TZVP (5D, 7F)
 Ernie: Thresh=  0.10000D-02 Tol=  0.10000D-05 Strict=F.
 There are   504 symmetry adapted cartesian basis functions of A   symmetry.
 There are   449 symmetry adapted basis functions of A   symmetry.
   449 basis functions,   705 primitive gaussians,   504 cartesian basis functions
    44 alpha electrons       43 beta electrons
       nuclear repulsion energy       711.6805105541 Hartrees.
 IExCor= 4336 DFT=T Ex+Corr=M062X ExCW=0 ScaHFX=  0.540000
 ScaDFX=  1.000000  1.000000  1.000000  1.000000 ScalE2=  1.000000  1.000000
 IRadAn=      5 IRanWt=     -1 IRanGd=            0 ICorTp=0 IEmpDi=  4
 NAtoms=   29 NActive=   29 NUniq=   29 SFac= 1.00D+00 NAtFMM=   60 NAOKFM=F Big=F
 Integral buffers will be    131072 words long.
 Raffenetti 2 integral format.
 Two-electron integral symmetry is turned on.
 Leave Link  301 at Tue Jan  7 16:43:09 2025, MaxMem=  4026531840 cpu:               1.4 elap:               0.4
 (Enter /usr/local/intel/g16/l302.exe)
 NPDir=0 NMtPBC=     1 NCelOv=     1 NCel=       1 NClECP=     1 NCelD=      1
         NCelK=      1 NCelE2=     1 NClLst=     1 CellRange=     0.0.
 One-electron integrals computed using PRISM.
 One-electron integral symmetry used in STVInt
   1 Symmetry operations used in ECPInt.
 ECPInt:  NShTT=   18721 NPrTT=   54252 LenC2=   18329 LenP2D=   41852.
 LDataN:  DoStor=T MaxTD1= 6 Len=  172
 NBasis=   449 RedAO= T EigKep=  5.95D-05  NBF=   449
 NBsUse=   449 1.00D-06 EigRej= -1.00D+00 NBFU=   449
 Precomputing XC quadrature grid using
 IXCGrd= 4 IRadAn=           5 IRanWt=          -1 IRanGd=           0 AccXCQ= 0.00D+00.
 Generated NRdTot=       0 NPtTot=           0 NUsed=           0 NTot=          32
 NSgBfM=   502   501   501   501   502 MxSgAt=    29 MxSgA2=    29.
 Leave Link  302 at Tue Jan  7 16:43:10 2025, MaxMem=  4026531840 cpu:              11.0 elap:               0.7
 (Enter /usr/local/intel/g16/l303.exe)
 DipDrv:  MaxL=1.
 Leave Link  303 at Tue Jan  7 16:43:10 2025, MaxMem=  4026531840 cpu:               1.8 elap:               0.1
 (Enter /usr/local/intel/g16/l401.exe)
 ExpMin= 9.52D-02 ExpMax= 2.70D+04 ExpMxC= 9.22D+02 IAcc=3 IRadAn=         5 AccDes= 0.00D+00
 Harris functional with IExCor= 1009 and IRadAn=       5 diagonalized for initial guess.
 HarFok:  IExCor= 1009 AccDes= 0.00D+00 IRadAn=         5 IDoV= 1 UseB2=F ITyADJ=14
 ICtDFT=  3500011 ScaDFX=  1.000000  1.000000  1.000000  1.000000
 FoFCou: FMM=F IPFlag=           0 FMFlag=      100000 FMFlg1=           0
         NFxFlg=           0 DoJE=T BraDBF=F KetDBF=T FulRan=T
         wScrn=  0.000000 ICntrl=       500 IOpCl=  0 I1Cent=   200000004 NGrid=           0
         NMat0=    1 NMatS0=      1 NMatT0=    0 NMatD0=    1 NMtDS0=    0 NMtDT0=    0
 Petite list used in FoFCou.
 Harris En= -483.522039278258    
 JPrj=0 DoOrth=F DoCkMO=F.
 Initial guess <Sx>= 0.0000 <Sy>= 0.0000 <Sz>= 0.5000 <S**2>= 0.7500 S= 0.5000
 Leave Link  401 at Tue Jan  7 16:43:12 2025, MaxMem=  4026531840 cpu:              43.6 elap:               2.2
 (Enter /usr/local/intel/g16/l502.exe)
 Integral symmetry usage will be decided dynamically.
 UHF open shell SCF:
 Using DIIS extrapolation, IDIIS=  1040.
 NGot=  4026531840 LenX=  4026008330 LenY=  4025753810
 Requested convergence on RMS density matrix=1.00D-08 within 128 cycles.
 Requested convergence on MAX density matrix=1.00D-06.
 Requested convergence on             energy=1.00D-06.
 No special actions if energy rises.
 Fock matrices will be formed incrementally for  20 cycles.
 Integral accuracy reduced to 1.0D-05 until final iterations.

 Cycle   1  Pass 0  IDiag  1:
 FoFJK:  IHMeth= 1 ICntrl=       0 DoSepK=F KAlg= 0 I1Cent=           0 FoldK=F
 IRaf= 950000000 NMat=       1 IRICut=       1 DoRegI=T DoRafI=F ISym2E= 0 IDoP0=0 IntGTp=1.
 FoFCou: FMM=F IPFlag=           0 FMFlag=      100000 FMFlg1=           0
         NFxFlg=           0 DoJE=F BraDBF=F KetDBF=F FulRan=T
         wScrn=  0.000000 ICntrl=         0 IOpCl=  1 I1Cent=           0 NGrid=           0
         NMat0=    1 NMatS0=      1 NMatT0=    0 NMatD0=    1 NMtDS0=    0 NMtDT0=    0
 Symmetry not used in FoFCou.
 E= -483.240894448069    
 DIIS: error= 2.90D-02 at cycle   1 NSaved=   1.
 NSaved= 1 IEnMin= 1 EnMin= -483.240894448069     IErMin= 1 ErrMin= 2.90D-02
 ErrMax= 2.90D-02  0.00D+00 EMaxC= 1.00D-01 BMatC= 2.00D+00 BMatP= 2.00D+00
 IDIUse=3 WtCom= 7.10D-01 WtEn= 2.90D-01
 Coeff-Com:  0.100D+01
 Coeff-En:   0.100D+01
 Coeff:      0.100D+01
 Gap=     0.336 Goal=   None    Shift=    0.000
 Gap=     0.222 Goal=   None    Shift=    0.000
 GapD=    0.222 DampG=1.000 DampE=0.500 DampFc=0.5000 IDamp=-1.
 Damping current iteration by 5.00D-01
 RMSDP=2.70D-03 MaxDP=1.27D-01              OVMax= 1.77D-01

 Cycle   2  Pass 0  IDiag  1:
 RMSU=  1.34D-03    CP:  9.75D-01
 E= -483.454509063432     Delta-E=       -0.213614615363 Rises=F Damp=T
 DIIS: error= 5.78D-03 at cycle   2 NSaved=   2.
 NSaved= 2 IEnMin= 2 EnMin= -483.454509063432     IErMin= 2 ErrMin= 5.78D-03
 ErrMax= 5.78D-03  0.00D+00 EMaxC= 1.00D-01 BMatC= 1.44D-01 BMatP= 2.00D+00
 IDIUse=3 WtCom= 9.42D-01 WtEn= 5.78D-02
 Coeff-Com: -0.405D-01 0.104D+01
 Coeff-En:   0.000D+00 0.100D+01
 Coeff:     -0.381D-01 0.104D+01
 Gap=     0.340 Goal=   None    Shift=    0.000
 Gap=     0.312 Goal=   None    Shift=    0.000
 RMSDP=9.21D-04 MaxDP=3.49D-02 DE=-2.14D-01 OVMax= 1.32D-01

 Cycle   3  Pass 0  IDiag  1:
 RMSU=  8.84D-04    CP:  9.64D-01  1.18D+00
 E= -483.654692096225     Delta-E=       -0.200183032793 Rises=F Damp=F
 DIIS: error= 7.89D-03 at cycle   3 NSaved=   3.
 NSaved= 3 IEnMin= 3 EnMin= -483.654692096225     IErMin= 2 ErrMin= 5.78D-03
 ErrMax= 7.89D-03  0.00D+00 EMaxC= 1.00D-01 BMatC= 8.49D-02 BMatP= 1.44D-01
 IDIUse=3 WtCom= 9.21D-01 WtEn= 7.89D-02
 Coeff-Com: -0.680D-01 0.464D+00 0.604D+00
 Coeff-En:   0.000D+00 0.000D+00 0.100D+01
 Coeff:     -0.626D-01 0.427D+00 0.635D+00
 Gap=     0.327 Goal=   None    Shift=    0.000
 Gap=     0.288 Goal=   None    Shift=    0.000
 RMSDP=3.49D-04 MaxDP=2.63D-02 DE=-2.00D-01 OVMax= 8.20D-02

 Cycle   4  Pass 0  IDiag  1:
 RMSU=  3.25D-04    CP:  9.67D-01  1.24D+00  8.91D-01
 E= -483.664786400758     Delta-E=       -0.010094304533 Rises=F Damp=F
 DIIS: error= 3.97D-03 at cycle   4 NSaved=   4.
 NSaved= 4 IEnMin= 4 EnMin= -483.664786400758     IErMin= 4 ErrMin= 3.97D-03
 ErrMax= 3.97D-03  0.00D+00 EMaxC= 1.00D-01 BMatC= 3.05D-02 BMatP= 8.49D-02
 IDIUse=3 WtCom= 9.60D-01 WtEn= 3.97D-02
 Coeff-Com: -0.204D-01 0.641D-01 0.390D+00 0.566D+00
 Coeff-En:   0.000D+00 0.000D+00 0.284D+00 0.716D+00
 Coeff:     -0.196D-01 0.615D-01 0.386D+00 0.572D+00
 Gap=     0.321 Goal=   None    Shift=    0.000
 Gap=     0.298 Goal=   None    Shift=    0.000
 RMSDP=1.90D-04 MaxDP=1.01D-02 DE=-1.01D-02 OVMax= 2.01D-02

 Cycle   5  Pass 0  IDiag  1:
 RMSU=  1.17D-04    CP:  9.64D-01  1.21D+00  9.52D-01  5.97D-01
 E= -483.670304364683     Delta-E=       -0.005517963925 Rises=F Damp=F
 DIIS: error= 6.73D-04 at cycle   5 NSaved=   5.
 NSaved= 5 IEnMin= 5 EnMin= -483.670304364683     IErMin= 5 ErrMin= 6.73D-04
 ErrMax= 6.73D-04  0.00D+00 EMaxC= 1.00D-01 BMatC= 5.03D-04 BMatP= 3.05D-02
 IDIUse=3 WtCom= 9.93D-01 WtEn= 6.73D-03
 Coeff-Com: -0.344D-02 0.302D-02 0.126D+00 0.206D+00 0.668D+00
 Coeff-En:   0.000D+00 0.000D+00 0.000D+00 0.000D+00 0.100D+01
 Coeff:     -0.342D-02 0.300D-02 0.125D+00 0.205D+00 0.670D+00
 Gap=     0.318 Goal=   None    Shift=    0.000
 Gap=     0.299 Goal=   None    Shift=    0.000
 RMSDP=3.77D-05 MaxDP=2.31D-03 DE=-5.52D-03 OVMax= 7.98D-03

 Cycle   6  Pass 0  IDiag  1:
 RMSU=  3.31D-05    CP:  9.64D-01  1.21D+00  9.68D-01  6.30D-01  9.51D-01
 E= -483.670439592785     Delta-E=       -0.000135228102 Rises=F Damp=F
 DIIS: error= 3.10D-04 at cycle   6 NSaved=   6.
 NSaved= 6 IEnMin= 6 EnMin= -483.670439592785     IErMin= 6 ErrMin= 3.10D-04
 ErrMax= 3.10D-04  0.00D+00 EMaxC= 1.00D-01 BMatC= 1.28D-04 BMatP= 5.03D-04
 IDIUse=3 WtCom= 9.97D-01 WtEn= 3.10D-03
 Coeff-Com:  0.341D-02-0.117D-01-0.188D-01-0.425D-01 0.235D+00 0.834D+00
 Coeff-En:   0.000D+00 0.000D+00 0.000D+00 0.000D+00 0.000D+00 0.100D+01
 Coeff:      0.340D-02-0.117D-01-0.188D-01-0.424D-01 0.234D+00 0.835D+00
 Gap=     0.320 Goal=   None    Shift=    0.000
 Gap=     0.300 Goal=   None    Shift=    0.000
 RMSDP=3.07D-05 MaxDP=2.14D-03 DE=-1.35D-04 OVMax= 4.39D-03

 Cycle   7  Pass 0  IDiag  1:
 RMSU=  1.37D-05    CP:  9.63D-01  1.21D+00  9.77D-01  6.21D-01  1.14D+00
                    CP:  1.30D+00
 E= -483.670488012126     Delta-E=       -0.000048419341 Rises=F Damp=F
 DIIS: error= 1.21D-04 at cycle   7 NSaved=   7.
 NSaved= 7 IEnMin= 7 EnMin= -483.670488012126     IErMin= 7 ErrMin= 1.21D-04
 ErrMax= 1.21D-04  0.00D+00 EMaxC= 1.00D-01 BMatC= 2.09D-05 BMatP= 1.28D-04
 IDIUse=3 WtCom= 9.99D-01 WtEn= 1.21D-03
 Coeff-Com:  0.127D-02-0.173D-02-0.226D-01-0.568D-01-0.128D+00 0.230D-01
 Coeff-Com:  0.118D+01
 Coeff-En:   0.000D+00 0.000D+00 0.000D+00 0.000D+00 0.000D+00 0.000D+00
 Coeff-En:   0.100D+01
 Coeff:      0.127D-02-0.173D-02-0.225D-01-0.567D-01-0.128D+00 0.230D-01
 Coeff:      0.118D+01
 Gap=     0.320 Goal=   None    Shift=    0.000
 Gap=     0.300 Goal=   None    Shift=    0.000
 RMSDP=2.09D-05 MaxDP=1.47D-03 DE=-4.84D-05 OVMax= 4.36D-03

 Cycle   8  Pass 0  IDiag  1:
 RMSU=  6.99D-06    CP:  9.63D-01  1.20D+00  9.81D-01  6.10D-01  1.26D+00
                    CP:  1.58D+00  1.52D+00
 E= -483.670502691373     Delta-E=       -0.000014679247 Rises=F Damp=F
 DIIS: error= 4.92D-05 at cycle   8 NSaved=   8.
 NSaved= 8 IEnMin= 8 EnMin= -483.670502691373     IErMin= 8 ErrMin= 4.92D-05
 ErrMax= 4.92D-05  0.00D+00 EMaxC= 1.00D-01 BMatC= 2.76D-06 BMatP= 2.09D-05
 IDIUse=1 WtCom= 1.00D+00 WtEn= 0.00D+00
 Coeff-Com: -0.329D-03 0.125D-02 0.466D-02 0.308D-02-0.203D-01-0.110D+00
 Coeff-Com: -0.355D-01 0.116D+01
 Coeff:     -0.329D-03 0.125D-02 0.466D-02 0.308D-02-0.203D-01-0.110D+00
 Coeff:     -0.355D-01 0.116D+01
 Gap=     0.320 Goal=   None    Shift=    0.000
 Gap=     0.300 Goal=   None    Shift=    0.000
 RMSDP=7.87D-06 MaxDP=4.40D-04 DE=-1.47D-05 OVMax= 1.47D-03

 Initial convergence to 1.0D-05 achieved.  Increase integral accuracy.
 Cycle   9  Pass 1  IDiag  1:
 E= -483.670648782035     Delta-E=       -0.000146090662 Rises=F Damp=F
 DIIS: error= 7.79D-05 at cycle   1 NSaved=   1.
 NSaved= 1 IEnMin= 1 EnMin= -483.670648782035     IErMin= 1 ErrMin= 7.79D-05
 ErrMax= 7.79D-05  0.00D+00 EMaxC= 1.00D-01 BMatC= 9.04D-06 BMatP= 9.04D-06
 IDIUse=1 WtCom= 1.00D+00 WtEn= 0.00D+00
 Coeff-Com:  0.100D+01
 Coeff:      0.100D+01
 Gap=     0.320 Goal=   None    Shift=    0.000
 Gap=     0.300 Goal=   None    Shift=    0.000
 RMSDP=7.87D-06 MaxDP=4.40D-04 DE=-1.46D-04 OVMax= 2.66D-04

 Cycle  10  Pass 1  IDiag  1:
 RMSU=  3.06D-05    CP:  1.00D+00
 E= -483.670649718390     Delta-E=       -0.000000936354 Rises=F Damp=F
 DIIS: error= 2.55D-05 at cycle   2 NSaved=   2.
 NSaved= 2 IEnMin= 2 EnMin= -483.670649718390     IErMin= 2 ErrMin= 2.55D-05
 ErrMax= 2.55D-05  0.00D+00 EMaxC= 1.00D-01 BMatC= 5.75D-07 BMatP= 9.04D-06
 IDIUse=1 WtCom= 1.00D+00 WtEn= 0.00D+00
 Coeff-Com:  0.801D-01 0.920D+00
 Coeff:      0.801D-01 0.920D+00
 Gap=     0.320 Goal=   None    Shift=    0.000
 Gap=     0.300 Goal=   None    Shift=    0.000
 RMSDP=2.12D-06 MaxDP=1.13D-04 DE=-9.36D-07 OVMax= 2.97D-04

 Cycle  11  Pass 1  IDiag  1:
 RMSU=  1.79D-06    CP:  1.00D+00  1.04D+00
 E= -483.670649732333     Delta-E=       -0.000000013943 Rises=F Damp=F
 DIIS: error= 2.10D-05 at cycle   3 NSaved=   3.
 NSaved= 3 IEnMin= 3 EnMin= -483.670649732333     IErMin= 3 ErrMin= 2.10D-05
 ErrMax= 2.10D-05  0.00D+00 EMaxC= 1.00D-01 BMatC= 8.58D-07 BMatP= 5.75D-07
 IDIUse=1 WtCom= 1.00D+00 WtEn= 0.00D+00
 Coeff-Com: -0.906D-02 0.557D+00 0.452D+00
 Coeff:     -0.906D-02 0.557D+00 0.452D+00
 Gap=     0.320 Goal=   None    Shift=    0.000
 Gap=     0.300 Goal=   None    Shift=    0.000
 RMSDP=1.04D-06 MaxDP=5.22D-05 DE=-1.39D-08 OVMax= 8.86D-05

 Cycle  12  Pass 1  IDiag  1:
 RMSU=  8.85D-07    CP:  1.00D+00  1.04D+00  7.28D-01
 E= -483.670649903098     Delta-E=       -0.000000170765 Rises=F Damp=F
 DIIS: error= 7.03D-06 at cycle   4 NSaved=   4.
 NSaved= 4 IEnMin= 4 EnMin= -483.670649903098     IErMin= 4 ErrMin= 7.03D-06
 ErrMax= 7.03D-06  0.00D+00 EMaxC= 1.00D-01 BMatC= 3.06D-08 BMatP= 5.75D-07
 IDIUse=1 WtCom= 1.00D+00 WtEn= 0.00D+00
 Coeff-Com: -0.844D-02 0.175D+00 0.150D+00 0.683D+00
 Coeff:     -0.844D-02 0.175D+00 0.150D+00 0.683D+00
 Gap=     0.320 Goal=   None    Shift=    0.000
 Gap=     0.300 Goal=   None    Shift=    0.000
 RMSDP=3.49D-07 MaxDP=3.10D-05 DE=-1.71D-07 OVMax= 1.05D-04

 Cycle  13  Pass 1  IDiag  1:
 RMSU=  2.98D-07    CP:  1.00D+00  1.05D+00  7.35D-01  1.18D+00
 E= -483.670649916045     Delta-E=       -0.000000012947 Rises=F Damp=F
 DIIS: error= 4.19D-06 at cycle   5 NSaved=   5.
 NSaved= 5 IEnMin= 5 EnMin= -483.670649916045     IErMin= 5 ErrMin= 4.19D-06
 ErrMax= 4.19D-06  0.00D+00 EMaxC= 1.00D-01 BMatC= 2.12D-08 BMatP= 3.06D-08
 IDIUse=1 WtCom= 1.00D+00 WtEn= 0.00D+00
 Coeff-Com:  0.480D-02-0.326D+00-0.332D+00 0.326D+00 0.133D+01
 Coeff:      0.480D-02-0.326D+00-0.332D+00 0.326D+00 0.133D+01
 Gap=     0.320 Goal=   None    Shift=    0.000
 Gap=     0.300 Goal=   None    Shift=    0.000
 RMSDP=6.43D-07 MaxDP=3.20D-05 DE=-1.29D-08 OVMax= 1.18D-04

 Cycle  14  Pass 1  IDiag  1:
 RMSU=  2.64D-07    CP:  1.00D+00  1.05D+00  8.61D-01  1.78D+00  1.28D+00
 E= -483.670649928274     Delta-E=       -0.000000012230 Rises=F Damp=F
 DIIS: error= 6.13D-07 at cycle   6 NSaved=   6.
 NSaved= 6 IEnMin= 6 EnMin= -483.670649928274     IErMin= 6 ErrMin= 6.13D-07
 ErrMax= 6.13D-07  0.00D+00 EMaxC= 1.00D-01 BMatC= 8.71D-10 BMatP= 2.12D-08
 IDIUse=1 WtCom= 1.00D+00 WtEn= 0.00D+00
 Coeff-Com:  0.235D-02-0.119D+00-0.126D+00 0.728D-01 0.375D+00 0.795D+00
 Coeff:      0.235D-02-0.119D+00-0.126D+00 0.728D-01 0.375D+00 0.795D+00
 Gap=     0.320 Goal=   None    Shift=    0.000
 Gap=     0.300 Goal=   None    Shift=    0.000
 RMSDP=1.00D-07 MaxDP=6.46D-06 DE=-1.22D-08 OVMax= 2.34D-05

 Cycle  15  Pass 1  IDiag  1:
 RMSU=  5.73D-08    CP:  1.00D+00  1.05D+00  8.74D-01  1.84D+00  1.29D+00
                    CP:  1.21D+00
 E= -483.670649928717     Delta-E=       -0.000000000442 Rises=F Damp=F
 DIIS: error= 2.43D-07 at cycle   7 NSaved=   7.
 NSaved= 7 IEnMin= 7 EnMin= -483.670649928717     IErMin= 7 ErrMin= 2.43D-07
 ErrMax= 2.43D-07  0.00D+00 EMaxC= 1.00D-01 BMatC= 1.10D-10 BMatP= 8.71D-10
 IDIUse=1 WtCom= 1.00D+00 WtEn= 0.00D+00
 Coeff-Com: -0.133D-03 0.179D-01 0.150D-01-0.185D-01-0.114D+00 0.214D+00
 Coeff-Com:  0.886D+00
 Coeff:     -0.133D-03 0.179D-01 0.150D-01-0.185D-01-0.114D+00 0.214D+00
 Coeff:      0.886D+00
 Gap=     0.320 Goal=   None    Shift=    0.000
 Gap=     0.300 Goal=   None    Shift=    0.000
 RMSDP=4.71D-08 MaxDP=2.34D-06 DE=-4.42D-10 OVMax= 5.99D-06

 Cycle  16  Pass 1  IDiag  1:
 RMSU=  2.58D-08    CP:  1.00D+00  1.05D+00  8.73D-01  1.85D+00  1.24D+00
                    CP:  1.32D+00  1.20D+00
 E= -483.670649928757     Delta-E=       -0.000000000040 Rises=F Damp=F
 DIIS: error= 6.80D-08 at cycle   8 NSaved=   8.
 NSaved= 8 IEnMin= 8 EnMin= -483.670649928757     IErMin= 8 ErrMin= 6.80D-08
 ErrMax= 6.80D-08  0.00D+00 EMaxC= 1.00D-01 BMatC= 1.17D-11 BMatP= 1.10D-10
 IDIUse=1 WtCom= 1.00D+00 WtEn= 0.00D+00
 Coeff-Com: -0.252D-03 0.167D-01 0.159D-01-0.116D-01-0.730D-01 0.383D-03
 Coeff-Com:  0.305D+00 0.747D+00
 Coeff:     -0.252D-03 0.167D-01 0.159D-01-0.116D-01-0.730D-01 0.383D-03
 Coeff:      0.305D+00 0.747D+00
 Gap=     0.320 Goal=   None    Shift=    0.000
 Gap=     0.300 Goal=   None    Shift=    0.000
 RMSDP=1.36D-08 MaxDP=8.33D-07 DE=-4.00D-11 OVMax= 1.52D-06

 Cycle  17  Pass 1  IDiag  1:
 RMSU=  5.60D-09    CP:  1.00D+00  1.05D+00  8.72D-01  1.84D+00  1.23D+00
                    CP:  1.35D+00  1.29D+00  1.27D+00
 E= -483.670649928762     Delta-E=       -0.000000000006 Rises=F Damp=F
 DIIS: error= 2.17D-08 at cycle   9 NSaved=   9.
 NSaved= 9 IEnMin= 9 EnMin= -483.670649928762     IErMin= 9 ErrMin= 2.17D-08
 ErrMax= 2.17D-08  0.00D+00 EMaxC= 1.00D-01 BMatC= 1.39D-12 BMatP= 1.17D-11
 IDIUse=1 WtCom= 1.00D+00 WtEn= 0.00D+00
 Coeff-Com: -0.327D-04 0.832D-03 0.778D-03 0.130D-02 0.144D-02-0.348D-01
 Coeff-Com: -0.715D-01 0.165D+00 0.937D+00
 Coeff:     -0.327D-04 0.832D-03 0.778D-03 0.130D-02 0.144D-02-0.348D-01
 Coeff:     -0.715D-01 0.165D+00 0.937D+00
 Gap=     0.320 Goal=   None    Shift=    0.000
 Gap=     0.300 Goal=   None    Shift=    0.000
 RMSDP=7.36D-09 MaxDP=3.48D-07 DE=-5.91D-12 OVMax= 5.72D-07

 SCF Done:  E(UM062X) =  -483.670649929     A.U. after   17 cycles
            NFock= 17  Conv=0.74D-08     -V/T= 2.0061
 <Sx>= 0.0000 <Sy>= 0.0000 <Sz>= 0.5000 <S**2>= 0.7559 S= 0.5029
 <L.S>=  0.00000000000    
 KE= 4.807510563547D+02 PE=-2.547296601397D+03 EE= 8.711943845590D+02
 Annihilation of the first spin contaminant:
 S**2 before annihilation     0.7559,   after     0.7500
 Leave Link  502 at Tue Jan  7 16:47:47 2025, MaxMem=  4026531840 cpu:            5498.1 elap:             275.0
 (Enter /usr/local/intel/g16/l601.exe)
 Copying SCF densities to generalized density rwf, IOpCl= 1 IROHF=0.

 **********************************************************************

            Population analysis using the SCF Density.

 **********************************************************************

 Orbital symmetries:
 Alpha Orbitals:
       Occupied  (A) (A) (A) (A) (A) (A) (A) (A) (A) (A) (A) (A)
                 (A) (A) (A) (A) (A) (A) (A) (A) (A) (A) (A) (A)
                 (A) (A) (A) (A) (A) (A) (A) (A) (A) (A) (A) (A)
                 (A) (A) (A) (A) (A) (A) (A) (A)
       Virtual   (A) (A) (A) (A) (A) (A) (A) (A) (A) (A) (A) (A)
                 (A) (A) (A) (A) (A) (A) (A) (A) (A) (A) (A) (A)
                 (A) (A) (A) (A) (A) (A) (A) (A) (A) (A) (A) (A)
                 (A) (A) (A) (A) (A) (A) (A) (A) (A) (A) (A) (A)
                 (A) (A) (A) (A) (A) (A) (A) (A) (A) (A) (A) (A)
                 (A) (A) (A) (A) (A) (A) (A) (A) (A) (A) (A) (A)
                 (A) (A) (A) (A) (A) (A) (A) (A) (A) (A) (A) (A)
                 (A) (A) (A) (A) (A) (A) (A) (A) (A) (A) (A) (A)
                 (A) (A) (A) (A) (A) (A) (A) (A) (A) (A) (A) (A)
                 (A) (A) (A) (A) (A) (A) (A) (A) (A) (A) (A) (A)
                 (A) (A) (A) (A) (A) (A) (A) (A) (A) (A) (A) (A)
                 (A) (A) (A) (A) (A) (A) (A) (A) (A) (A) (A) (A)
                 (A) (A) (A) (A) (A) (A) (A) (A) (A) (A) (A) (A)
                 (A) (A) (A) (A) (A) (A) (A) (A) (A) (A) (A) (A)
                 (A) (A) (A) (A) (A) (A) (A) (A) (A) (A) (A) (A)
                 (A) (A) (A) (A) (A) (A) (A) (A) (A) (A) (A) (A)
                 (A) (A) (A) (A) (A) (A) (A) (A) (A) (A) (A) (A)
                 (A) (A) (A) (A) (A) (A) (A) (A) (A) (A) (A) (A)
                 (A) (A) (A) (A) (A) (A) (A) (A) (A) (A) (A) (A)
                 (A) (A) (A) (A) (A) (A) (A) (A) (A) (A) (A) (A)
                 (A) (A) (A) (A) (A) (A) (A) (A) (A) (A) (A) (A)
                 (A) (A) (A) (A) (A) (A) (A) (A) (A) (A) (A) (A)
                 (A) (A) (A) (A) (A) (A) (A) (A) (A) (A) (A) (A)
                 (A) (A) (A) (A) (A) (A) (A) (A) (A) (A) (A) (A)
                 (A) (A) (A) (A) (A) (A) (A) (A) (A) (A) (A) (A)
                 (A) (A) (A) (A) (A) (A) (A) (A) (A) (A) (A) (A)
                 (A) (A) (A) (A) (A) (A) (A) (A) (A) (A) (A) (A)
                 (A) (A) (A) (A) (A) (A) (A) (A) (A) (A) (A) (A)
                 (A) (A) (A) (A) (A) (A) (A) (A) (A) (A) (A) (A)
                 (A) (A) (A) (A) (A) (A) (A) (A) (A) (A) (A) (A)
                 (A) (A) (A) (A) (A) (A) (A) (A) (A) (A) (A) (A)
                 (A) (A) (A) (A) (A) (A) (A) (A) (A) (A) (A) (A)
                 (A) (A) (A) (A) (A) (A) (A) (A) (A) (A) (A) (A)
                 (A) (A) (A) (A) (A) (A) (A) (A) (A)
 Beta  Orbitals:
       Occupied  (A) (A) (A) (A) (A) (A) (A) (A) (A) (A) (A) (A)
                 (A) (A) (A) (A) (A) (A) (A) (A) (A) (A) (A) (A)
                 (A) (A) (A) (A) (A) (A) (A) (A) (A) (A) (A) (A)
                 (A) (A) (A) (A) (A) (A) (A)
       Virtual   (A) (A) (A) (A) (A) (A) (A) (A) (A) (A) (A) (A)
                 (A) (A) (A) (A) (A) (A) (A) (A) (A) (A) (A) (A)
                 (A) (A) (A) (A) (A) (A) (A) (A) (A) (A) (A) (A)
                 (A) (A) (A) (A) (A) (A) (A) (A) (A) (A) (A) (A)
                 (A) (A) (A) (A) (A) (A) (A) (A) (A) (A) (A) (A)
                 (A) (A) (A) (A) (A) (A) (A) (A) (A) (A) (A) (A)
                 (A) (A) (A) (A) (A) (A) (A) (A) (A) (A) (A) (A)
                 (A) (A) (A) (A) (A) (A) (A) (A) (A) (A) (A) (A)
                 (A) (A) (A) (A) (A) (A) (A) (A) (A) (A) (A) (A)
                 (A) (A) (A) (A) (A) (A) (A) (A) (A) (A) (A) (A)
                 (A) (A) (A) (A) (A) (A) (A) (A) (A) (A) (A) (A)
                 (A) (A) (A) (A) (A) (A) (A) (A) (A) (A) (A) (A)
                 (A) (A) (A) (A) (A) (A) (A) (A) (A) (A) (A) (A)
                 (A) (A) (A) (A) (A) (A) (A) (A) (A) (A) (A) (A)
                 (A) (A) (A) (A) (A) (A) (A) (A) (A) (A) (A) (A)
                 (A) (A) (A) (A) (A) (A) (A) (A) (A) (A) (A) (A)
                 (A) (A) (A) (A) (A) (A) (A) (A) (A) (A) (A) (A)
                 (A) (A) (A) (A) (A) (A) (A) (A) (A) (A) (A) (A)
                 (A) (A) (A) (A) (A) (A) (A) (A) (A) (A) (A) (A)
                 (A) (A) (A) (A) (A) (A) (A) (A) (A) (A) (A) (A)
                 (A) (A) (A) (A) (A) (A) (A) (A) (A) (A) (A) (A)
                 (A) (A) (A) (A) (A) (A) (A) (A) (A) (A) (A) (A)
                 (A) (A) (A) (A) (A) (A) (A) (A) (A) (A) (A) (A)
                 (A) (A) (A) (A) (A) (A) (A) (A) (A) (A) (A) (A)
                 (A) (A) (A) (A) (A) (A) (A) (A) (A) (A) (A) (A)
                 (A) (A) (A) (A) (A) (A) (A) (A) (A) (A) (A) (A)
                 (A) (A) (A) (A) (A) (A) (A) (A) (A) (A) (A) (A)
                 (A) (A) (A) (A) (A) (A) (A) (A) (A) (A) (A) (A)
                 (A) (A) (A) (A) (A) (A) (A) (A) (A) (A) (A) (A)
                 (A) (A) (A) (A) (A) (A) (A) (A) (A) (A) (A) (A)
                 (A) (A) (A) (A) (A) (A) (A) (A) (A) (A) (A) (A)
                 (A) (A) (A) (A) (A) (A) (A) (A) (A) (A) (A) (A)
                 (A) (A) (A) (A) (A) (A) (A) (A) (A) (A) (A) (A)
                 (A) (A) (A) (A) (A) (A) (A) (A) (A) (A)
 The electronic state is 2-A.
 Alpha  occ. eigenvalues --  -19.62265 -14.83062 -10.58983 -10.58982 -10.54303
 Alpha  occ. eigenvalues --  -10.54275 -10.54251 -10.52978 -10.52977 -10.52350
 Alpha  occ. eigenvalues --  -10.52349  -1.18925  -0.97266  -0.91818  -0.87023
 Alpha  occ. eigenvalues --   -0.81494  -0.78673  -0.77803  -0.77326  -0.69213
 Alpha  occ. eigenvalues --   -0.67687  -0.59777  -0.56102  -0.55387  -0.54470
 Alpha  occ. eigenvalues --   -0.53393  -0.51153  -0.49488  -0.49289  -0.47353
 Alpha  occ. eigenvalues --   -0.47140  -0.45616  -0.45559  -0.43918  -0.43354
 Alpha  occ. eigenvalues --   -0.43221  -0.41943  -0.41493  -0.39444  -0.38709
 Alpha  occ. eigenvalues --   -0.38695  -0.37013  -0.33149  -0.26540
 Alpha virt. eigenvalues --    0.05453   0.08150   0.08210   0.08857   0.09720
 Alpha virt. eigenvalues --    0.12173   0.12376   0.13394   0.13563   0.13655
 Alpha virt. eigenvalues --    0.14109   0.15450   0.15757   0.15769   0.16939
 Alpha virt. eigenvalues --    0.17157   0.17619   0.18392   0.19001   0.19205
 Alpha virt. eigenvalues --    0.20364   0.20618   0.21371   0.22088   0.22915
 Alpha virt. eigenvalues --    0.23123   0.24808   0.25097   0.25657   0.27312
 Alpha virt. eigenvalues --    0.28311   0.28847   0.29496   0.30273   0.31740
 Alpha virt. eigenvalues --    0.32092   0.34538   0.34965   0.35859   0.36177
 Alpha virt. eigenvalues --    0.37640   0.38921   0.39533   0.39749   0.40553
 Alpha virt. eigenvalues --    0.41154   0.42240   0.42950   0.43556   0.44844
 Alpha virt. eigenvalues --    0.45175   0.45534   0.45538   0.46817   0.48156
 Alpha virt. eigenvalues --    0.48240   0.48700   0.49163   0.49286   0.49824
 Alpha virt. eigenvalues --    0.50263   0.50482   0.51104   0.51462   0.52367
 Alpha virt. eigenvalues --    0.52886   0.53634   0.53679   0.55364   0.55959
 Alpha virt. eigenvalues --    0.56210   0.57659   0.58526   0.59331   0.60128
 Alpha virt. eigenvalues --    0.61949   0.63754   0.64085   0.65996   0.68529
 Alpha virt. eigenvalues --    0.69844   0.69881   0.72913   0.73435   0.74343
 Alpha virt. eigenvalues --    0.75414   0.77234   0.79076   0.81266   0.81970
 Alpha virt. eigenvalues --    0.84167   0.84587   0.85892   0.88707   0.89072
 Alpha virt. eigenvalues --    0.91789   0.92449   0.92923   0.93321   0.94184
 Alpha virt. eigenvalues --    0.95978   0.97843   0.98477   0.98970   0.99905
 Alpha virt. eigenvalues --    1.02075   1.02202   1.05051   1.05491   1.06776
 Alpha virt. eigenvalues --    1.07546   1.08098   1.09598   1.12898   1.13350
 Alpha virt. eigenvalues --    1.17036   1.17284   1.18898   1.19946   1.20104
 Alpha virt. eigenvalues --    1.21886   1.24332   1.24710   1.25611   1.25905
 Alpha virt. eigenvalues --    1.30268   1.31320   1.32630   1.33235   1.33542
 Alpha virt. eigenvalues --    1.34669   1.38844   1.39295   1.40685   1.41584
 Alpha virt. eigenvalues --    1.44369   1.45290   1.50811   1.52580   1.55116
 Alpha virt. eigenvalues --    1.56843   1.57366   1.58738   1.59589   1.60835
 Alpha virt. eigenvalues --    1.61525   1.62119   1.62704   1.63495   1.63689
 Alpha virt. eigenvalues --    1.65120   1.65258   1.66292   1.66835   1.67366
 Alpha virt. eigenvalues --    1.68005   1.69438   1.69685   1.70528   1.70880
 Alpha virt. eigenvalues --    1.72664   1.73733   1.74229   1.77865   1.78488
 Alpha virt. eigenvalues --    1.80069   1.80539   1.84192   1.85560   1.86953
 Alpha virt. eigenvalues --    1.87562   1.88475   1.92775   1.93908   1.94455
 Alpha virt. eigenvalues --    1.97931   1.97971   2.00399   2.01561   2.04304
 Alpha virt. eigenvalues --    2.06632   2.07191   2.10329   2.10427   2.11186
 Alpha virt. eigenvalues --    2.12768   2.14065   2.16983   2.17094   2.18581
 Alpha virt. eigenvalues --    2.18805   2.20624   2.22866   2.24643   2.24737
 Alpha virt. eigenvalues --    2.26337   2.27005   2.27723   2.29508   2.29676
 Alpha virt. eigenvalues --    2.31796   2.32445   2.34674   2.35197   2.35227
 Alpha virt. eigenvalues --    2.36797   2.36951   2.39395   2.39571   2.40289
 Alpha virt. eigenvalues --    2.40643   2.42765   2.43365   2.45560   2.46813
 Alpha virt. eigenvalues --    2.48371   2.49335   2.50367   2.50558   2.54689
 Alpha virt. eigenvalues --    2.55805   2.55889   2.56181   2.56637   2.57988
 Alpha virt. eigenvalues --    2.58363   2.58655   2.60741   2.61203   2.61444
 Alpha virt. eigenvalues --    2.62634   2.64452   2.65495   2.65719   2.66774
 Alpha virt. eigenvalues --    2.68337   2.69356   2.70032   2.70221   2.71451
 Alpha virt. eigenvalues --    2.73680   2.74059   2.75576   2.75911   2.77334
 Alpha virt. eigenvalues --    2.78105   2.78971   2.81919   2.82240   2.83629
 Alpha virt. eigenvalues --    2.84685   2.86157   2.86928   2.88025   2.92614
 Alpha virt. eigenvalues --    2.94102   2.95225   2.97382   2.98143   3.02791
 Alpha virt. eigenvalues --    3.04384   3.04646   3.06834   3.08361   3.10003
 Alpha virt. eigenvalues --    3.13398   3.14553   3.14904   3.16290   3.18259
 Alpha virt. eigenvalues --    3.18869   3.20432   3.21301   3.22941   3.24867
 Alpha virt. eigenvalues --    3.26494   3.26751   3.28404   3.29840   3.30397
 Alpha virt. eigenvalues --    3.30770   3.32250   3.33365   3.33650   3.34072
 Alpha virt. eigenvalues --    3.36295   3.36719   3.37049   3.37877   3.37902
 Alpha virt. eigenvalues --    3.38146   3.40072   3.41695   3.42004   3.44650
 Alpha virt. eigenvalues --    3.45080   3.45544   3.48183   3.48230   3.50786
 Alpha virt. eigenvalues --    3.52378   3.52864   3.53402   3.53530   3.56878
 Alpha virt. eigenvalues --    3.59412   3.59994   3.62130   3.62814   3.65368
 Alpha virt. eigenvalues --    3.68523   3.69474   3.72068   3.74247   3.74299
 Alpha virt. eigenvalues --    3.74716   3.78041   3.78928   3.81003   3.81805
 Alpha virt. eigenvalues --    3.83941   3.90872   3.92997   3.95336   3.99058
 Alpha virt. eigenvalues --    3.99344   3.99475   4.01221   4.02124   4.04302
 Alpha virt. eigenvalues --    4.07321   4.07891   4.10103   4.10462   4.12274
 Alpha virt. eigenvalues --    4.14952   4.16447   4.16885   4.18101   4.21464
 Alpha virt. eigenvalues --    4.24104   4.26606   4.28801   4.29756   4.30094
 Alpha virt. eigenvalues --    4.31853   4.35409   4.36832   4.38061   4.38627
 Alpha virt. eigenvalues --    4.42348   4.43728   4.43813   4.44492   4.46249
 Alpha virt. eigenvalues --    4.46693   4.51022   4.54685   4.56599   4.59978
 Alpha virt. eigenvalues --    4.65627   4.70257   4.71717   4.72106   4.74652
 Alpha virt. eigenvalues --    4.78393   4.80467   4.84991   4.89177   4.91045
 Alpha virt. eigenvalues --    4.96942   4.97133   5.02491   5.03518   5.05858
 Alpha virt. eigenvalues --    5.07005   5.17791   5.21739   5.26266   5.33981
 Alpha virt. eigenvalues --    5.43522   5.47070   5.55235   5.58676   5.75454
 Alpha virt. eigenvalues --    5.79277   6.11660   6.28799   6.41514   6.41527
 Alpha virt. eigenvalues --    6.82325   6.95444   6.98914   7.63138  22.48649
 Alpha virt. eigenvalues --   22.50998  22.51615  22.59105  22.60487  22.63906
 Alpha virt. eigenvalues --   22.68265  22.75489  22.81966  32.91452  44.10351
  Beta  occ. eigenvalues --  -19.61176 -14.82278 -10.59013 -10.59012 -10.54302
  Beta  occ. eigenvalues --  -10.54273 -10.54250 -10.52944 -10.52943 -10.52339
  Beta  occ. eigenvalues --  -10.52338  -1.15902  -0.96051  -0.91657  -0.86304
  Beta  occ. eigenvalues --   -0.79901  -0.78495  -0.77696  -0.77302  -0.68981
  Beta  occ. eigenvalues --   -0.67178  -0.58991  -0.55334  -0.55074  -0.53413
  Beta  occ. eigenvalues --   -0.51080  -0.51021  -0.49446  -0.48771  -0.46794
  Beta  occ. eigenvalues --   -0.46454  -0.45415  -0.45189  -0.43283  -0.42891
  Beta  occ. eigenvalues --   -0.42752  -0.41452  -0.39974  -0.39281  -0.38519
  Beta  occ. eigenvalues --   -0.36880  -0.35293  -0.31436
  Beta virt. eigenvalues --   -0.01420   0.05484   0.08148   0.08169   0.08865
  Beta virt. eigenvalues --    0.09770   0.12107   0.12403   0.13380   0.13573
  Beta virt. eigenvalues --    0.13687   0.14525   0.15506   0.15746   0.15778
  Beta virt. eigenvalues --    0.17026   0.17149   0.17637   0.18467   0.19056
  Beta virt. eigenvalues --    0.19191   0.20604   0.20669   0.21740   0.22124
  Beta virt. eigenvalues --    0.23082   0.23118   0.24942   0.25161   0.25919
  Beta virt. eigenvalues --    0.27375   0.28887   0.28969   0.29794   0.30258
  Beta virt. eigenvalues --    0.32111   0.32482   0.34730   0.35141   0.35820
  Beta virt. eigenvalues --    0.36610   0.37730   0.39086   0.39613   0.39663
  Beta virt. eigenvalues --    0.40618   0.41386   0.42248   0.43155   0.43658
  Beta virt. eigenvalues --    0.44861   0.45252   0.45632   0.45634   0.46794
  Beta virt. eigenvalues --    0.48144   0.48335   0.48810   0.49170   0.49279
  Beta virt. eigenvalues --    0.49883   0.50333   0.50523   0.51094   0.51715
  Beta virt. eigenvalues --    0.52473   0.52907   0.53682   0.53810   0.55445
  Beta virt. eigenvalues --    0.56000   0.56526   0.57697   0.58563   0.59441
  Beta virt. eigenvalues --    0.60489   0.62342   0.63764   0.64535   0.66063
  Beta virt. eigenvalues --    0.68661   0.69879   0.70416   0.73085   0.73492
  Beta virt. eigenvalues --    0.74481   0.75579   0.77269   0.79082   0.81311
  Beta virt. eigenvalues --    0.82098   0.84199   0.84758   0.86082   0.88820
  Beta virt. eigenvalues --    0.89120   0.91862   0.92460   0.92986   0.93398
  Beta virt. eigenvalues --    0.94195   0.96293   0.97847   0.98708   0.99111
  Beta virt. eigenvalues --    1.00069   1.02214   1.02353   1.05103   1.05684
  Beta virt. eigenvalues --    1.06802   1.07836   1.08173   1.09807   1.12946
  Beta virt. eigenvalues --    1.13368   1.17165   1.17297   1.19026   1.20008
  Beta virt. eigenvalues --    1.20116   1.22129   1.24428   1.24823   1.25666
  Beta virt. eigenvalues --    1.26333   1.30269   1.31376   1.32654   1.33394
  Beta virt. eigenvalues --    1.33573   1.34739   1.38928   1.39577   1.40801
  Beta virt. eigenvalues --    1.41670   1.44400   1.45944   1.50843   1.52913
  Beta virt. eigenvalues --    1.55166   1.57120   1.57761   1.58877   1.59671
  Beta virt. eigenvalues --    1.60907   1.61552   1.62166   1.62746   1.63699
  Beta virt. eigenvalues --    1.63818   1.65300   1.65353   1.66360   1.66901
  Beta virt. eigenvalues --    1.67454   1.68078   1.69540   1.69840   1.70896
  Beta virt. eigenvalues --    1.70961   1.72842   1.73991   1.74309   1.77931
  Beta virt. eigenvalues --    1.78798   1.80416   1.80676   1.84219   1.85811
  Beta virt. eigenvalues --    1.86942   1.87942   1.88560   1.93290   1.94189
  Beta virt. eigenvalues --    1.94479   1.97947   1.98176   2.00853   2.01741
  Beta virt. eigenvalues --    2.04483   2.06643   2.07138   2.10349   2.10624
  Beta virt. eigenvalues --    2.11312   2.12806   2.14220   2.17105   2.17219
  Beta virt. eigenvalues --    2.18688   2.19032   2.20638   2.23184   2.24773
  Beta virt. eigenvalues --    2.25150   2.26414   2.27110   2.27885   2.29534
  Beta virt. eigenvalues --    2.30516   2.31830   2.32640   2.34723   2.35235
  Beta virt. eigenvalues --    2.35244   2.36884   2.36973   2.39410   2.39638
  Beta virt. eigenvalues --    2.40343   2.41165   2.42814   2.43414   2.45779
  Beta virt. eigenvalues --    2.46846   2.48783   2.49364   2.50446   2.50637
  Beta virt. eigenvalues --    2.54728   2.55882   2.55955   2.56208   2.56733
  Beta virt. eigenvalues --    2.58201   2.58504   2.58707   2.60840   2.61224
  Beta virt. eigenvalues --    2.61549   2.62688   2.64554   2.65539   2.66179
  Beta virt. eigenvalues --    2.66825   2.68451   2.69382   2.70344   2.70589
  Beta virt. eigenvalues --    2.72035   2.73742   2.74270   2.75657   2.76027
  Beta virt. eigenvalues --    2.77361   2.78409   2.79536   2.82009   2.82534
  Beta virt. eigenvalues --    2.83947   2.84715   2.86773   2.86962   2.89968
  Beta virt. eigenvalues --    2.94023   2.94158   2.95448   2.97377   2.98359
  Beta virt. eigenvalues --    3.02926   3.04428   3.04843   3.06948   3.08454
  Beta virt. eigenvalues --    3.10325   3.13420   3.14717   3.15043   3.16386
  Beta virt. eigenvalues --    3.18423   3.18908   3.20457   3.21439   3.23037
  Beta virt. eigenvalues --    3.24960   3.26610   3.27099   3.28558   3.30090
  Beta virt. eigenvalues --    3.30487   3.30817   3.32325   3.33492   3.33704
  Beta virt. eigenvalues --    3.34206   3.36404   3.36772   3.37070   3.37985
  Beta virt. eigenvalues --    3.37987   3.38222   3.40111   3.41753   3.42132
  Beta virt. eigenvalues --    3.44722   3.45163   3.45649   3.48239   3.48329
  Beta virt. eigenvalues --    3.50871   3.52451   3.52899   3.53354   3.53584
  Beta virt. eigenvalues --    3.57076   3.59402   3.60249   3.62236   3.62869
  Beta virt. eigenvalues --    3.65429   3.68665   3.69568   3.72136   3.74262
  Beta virt. eigenvalues --    3.74398   3.74817   3.78221   3.78876   3.80962
  Beta virt. eigenvalues --    3.81837   3.83954   3.90975   3.93118   3.95466
  Beta virt. eigenvalues --    3.99241   3.99435   3.99756   4.01353   4.02157
  Beta virt. eigenvalues --    4.04467   4.07318   4.08085   4.10202   4.10530
  Beta virt. eigenvalues --    4.12266   4.14973   4.16514   4.17036   4.18245
  Beta virt. eigenvalues --    4.21483   4.24416   4.26761   4.28860   4.29863
  Beta virt. eigenvalues --    4.30194   4.32011   4.35633   4.37139   4.38311
  Beta virt. eigenvalues --    4.38659   4.42382   4.43764   4.43926   4.44649
  Beta virt. eigenvalues --    4.46343   4.46728   4.51033   4.54783   4.56648
  Beta virt. eigenvalues --    4.60072   4.65653   4.70233   4.71889   4.73154
  Beta virt. eigenvalues --    4.75669   4.79084   4.80862   4.85087   4.88945
  Beta virt. eigenvalues --    4.92537   4.97016   4.97398   5.02824   5.03535
  Beta virt. eigenvalues --    5.06807   5.08550   5.20105   5.23782   5.28262
  Beta virt. eigenvalues --    5.35632   5.43964   5.48067   5.57019   5.58540
  Beta virt. eigenvalues --    5.75960   5.80260   6.14122   6.28942   6.47341
  Beta virt. eigenvalues --    6.48376   6.86582   6.98488   6.98683   7.63127
  Beta virt. eigenvalues --   22.48678  22.51005  22.51624  22.59139  22.60493
  Beta virt. eigenvalues --   22.63908  22.68266  22.75430  22.81906  32.91591
  Beta virt. eigenvalues --   44.10435
          Condensed to atoms (all electrons):
               1          2          3          4          5          6
     1  O    8.285190   0.159627  -0.033329   0.009052   0.000766   0.009050
     2  N    0.159627   6.618837   0.187565  -0.013666  -0.024594  -0.013664
     3  C   -0.033329   0.187565   5.339647   0.177838  -0.018660   0.015954
     4  C    0.009052  -0.013666   0.177838   5.475943   0.178175  -0.069147
     5  C    0.000766  -0.024594  -0.018660   0.178175   5.240439   0.178159
     6  C    0.009050  -0.013664   0.015954  -0.069147   0.178159   5.475977
     7  C   -0.033324   0.187582  -0.022447   0.015947  -0.018653   0.177813
     8  C   -0.002977  -0.073491   0.257501  -0.096093   0.015436  -0.007313
     9  C   -0.023787  -0.056037   0.309585  -0.089844  -0.001977   0.001491
    10  C   -0.023790  -0.056044  -0.000683   0.001492  -0.001984  -0.089838
    11  C   -0.002958  -0.073485   0.002770  -0.007311   0.015434  -0.096091
    12  H   -0.000316   0.005352  -0.031638   0.429018  -0.047739   0.011228
    13  H   -0.000323  -0.003663  -0.043250   0.423346  -0.038592  -0.006325
    14  H   -0.000155  -0.001535   0.001499  -0.057942   0.451857  -0.057942
    15  H    0.000044  -0.000258   0.005122  -0.045196   0.447185  -0.045199
    16  H   -0.000316   0.005354  -0.000822   0.011226  -0.047730   0.429011
    17  H   -0.000322  -0.003666   0.003017  -0.006325  -0.038593   0.423349
    18  H    0.007351  -0.008957  -0.028957   0.014964  -0.000590  -0.000117
    19  H   -0.002088  -0.000447  -0.017785  -0.017680  -0.000795   0.000373
    20  H    0.001270   0.009533  -0.039503  -0.009530  -0.000192  -0.000090
    21  H    0.000185  -0.007149  -0.016337  -0.011687   0.004232  -0.003236
    22  H    0.011563  -0.006404  -0.041034   0.014496  -0.000896  -0.000031
    23  H    0.000101   0.009562  -0.032987  -0.010255   0.000783   0.000293
    24  H    0.000101   0.009562  -0.000615   0.000293   0.000784  -0.010255
    25  H    0.011565  -0.006402  -0.000184  -0.000031  -0.000896   0.014496
    26  H    0.000185  -0.007147   0.003194  -0.003234   0.004230  -0.011683
    27  H   -0.002088  -0.000448   0.000357   0.000373  -0.000795  -0.017681
    28  H    0.007350  -0.008951   0.000534  -0.000117  -0.000590   0.014964
    29  H    0.001269   0.009531   0.000271  -0.000090  -0.000192  -0.009529
               7          8          9         10         11         12
     1  O   -0.033324  -0.002977  -0.023787  -0.023790  -0.002958  -0.000316
     2  N    0.187582  -0.073491  -0.056037  -0.056044  -0.073485   0.005352
     3  C   -0.022447   0.257501   0.309585  -0.000683   0.002770  -0.031638
     4  C    0.015947  -0.096093  -0.089844   0.001492  -0.007311   0.429018
     5  C   -0.018653   0.015436  -0.001977  -0.001984   0.015434  -0.047739
     6  C    0.177813  -0.007313   0.001491  -0.089838  -0.096091   0.011228
     7  C    5.339658   0.002768  -0.000685   0.309570   0.257512  -0.000821
     8  C    0.002768   5.250532  -0.104700  -0.002332   0.003562  -0.007977
     9  C   -0.000685  -0.104700   5.207074  -0.005774  -0.002333  -0.004821
    10  C    0.309570  -0.002332  -0.005774   5.207091  -0.104688  -0.000122
    11  C    0.257512   0.003562  -0.002333  -0.104688   5.250494   0.000210
    12  H   -0.000821  -0.007977  -0.004821  -0.000122   0.000210   0.501681
    13  H    0.003017  -0.008330   0.009363   0.000190  -0.000392  -0.013225
    14  H    0.001497  -0.000614  -0.000810  -0.000810  -0.000614  -0.000847
    15  H    0.005123  -0.000647   0.000115   0.000115  -0.000647  -0.005995
    16  H   -0.031636   0.000210  -0.000122  -0.004819  -0.007984  -0.000239
    17  H   -0.043257  -0.000392   0.000190   0.009365  -0.008328  -0.000127
    18  H    0.000535   0.409261  -0.008732   0.000127  -0.000075  -0.000275
    19  H    0.000357   0.393743   0.013233   0.000126  -0.000452   0.000544
    20  H    0.000271   0.410047  -0.012466   0.000059   0.000016   0.002897
    21  H    0.003195   0.015036   0.384606  -0.004178  -0.000183  -0.000054
    22  H   -0.000184  -0.016367   0.421182   0.000588  -0.000274  -0.000214
    23  H   -0.000615  -0.012841   0.415486  -0.000022   0.000067   0.002079
    24  H   -0.032978   0.000067  -0.000021   0.415477  -0.012844  -0.000009
    25  H   -0.041044  -0.000274   0.000588   0.421182  -0.016363   0.000009
    26  H   -0.016340  -0.000184  -0.004180   0.384610   0.015034   0.000117
    27  H   -0.017783  -0.000452   0.000126   0.013232   0.393744   0.000001
    28  H   -0.028966  -0.000074   0.000127  -0.008726   0.409258  -0.000001
    29  H   -0.039501   0.000016   0.000059  -0.012470   0.410053   0.000002
              13         14         15         16         17         18
     1  O   -0.000323  -0.000155   0.000044  -0.000316  -0.000322   0.007351
     2  N   -0.003663  -0.001535  -0.000258   0.005354  -0.003666  -0.008957
     3  C   -0.043250   0.001499   0.005122  -0.000822   0.003017  -0.028957
     4  C    0.423346  -0.057942  -0.045196   0.011226  -0.006325   0.014964
     5  C   -0.038592   0.451857   0.447185  -0.047730  -0.038593  -0.000590
     6  C   -0.006325  -0.057942  -0.045199   0.429011   0.423349  -0.000117
     7  C    0.003017   0.001497   0.005123  -0.031636  -0.043257   0.000535
     8  C   -0.008330  -0.000614  -0.000647   0.000210  -0.000392   0.409261
     9  C    0.009363  -0.000810   0.000115  -0.000122   0.000190  -0.008732
    10  C    0.000190  -0.000810   0.000115  -0.004819   0.009365   0.000127
    11  C   -0.000392  -0.000614  -0.000647  -0.007984  -0.008328  -0.000075
    12  H   -0.013225  -0.000847  -0.005995  -0.000239  -0.000127  -0.000275
    13  H    0.505574   0.005155  -0.002746  -0.000127   0.002260   0.000118
    14  H    0.005155   0.513351  -0.014366  -0.000846   0.005155   0.000025
    15  H   -0.002746  -0.014366   0.512362  -0.005996  -0.002745   0.000013
    16  H   -0.000127  -0.000846  -0.005996   0.501683  -0.013224  -0.000001
    17  H    0.002260   0.005155  -0.002745  -0.013224   0.505578   0.000023
    18  H    0.000118   0.000025   0.000013  -0.000001   0.000023   0.479910
    19  H    0.004192   0.000012  -0.000019   0.000001   0.000142  -0.016457
    20  H   -0.001834   0.000004  -0.000033   0.000002   0.000019  -0.025510
    21  H   -0.000360  -0.002449  -0.000084   0.000117  -0.000010  -0.000076
    22  H   -0.000285   0.000119   0.000029   0.000009   0.000016   0.002567
    23  H   -0.000164  -0.000154  -0.000007  -0.000009  -0.000017  -0.000455
    24  H   -0.000017  -0.000154  -0.000007   0.002079  -0.000164   0.000001
    25  H    0.000016   0.000119   0.000029  -0.000214  -0.000285  -0.000032
    26  H   -0.000010  -0.002447  -0.000084  -0.000055  -0.000360   0.000018
    27  H    0.000142   0.000012  -0.000019   0.000544   0.004192  -0.000005
    28  H    0.000023   0.000025   0.000013  -0.000275   0.000118  -0.000021
    29  H    0.000019   0.000004  -0.000033   0.002898  -0.001834  -0.000003
              19         20         21         22         23         24
[...]
 0.00000208,-0.00000382,-0.00001670,0.00004417,-0.00006800,0.00000096,0
 .00027913,0.00028570,-0.00025133,-0.00006282,0.00074898,-0.00004290,-0
 .00008159,-0.01603277,0.00541522,0.00210748,-0.00151514,0.00000664,-0.
 00002683,0.31697971,0.00029509,0.00128772,-0.00053809,0.00046472,-0.00
 081056,-0.00029310,-0.00230859,-0.00111425,0.00135719,-0.00057589,0.00
 026985,-0.00008353,-0.00005751,-0.00029250,-0.00011696,0.00005743,0.00
 006161,-0.00001006,-0.00008281,-0.00019775,-0.00031220,0.00020370,0.00
 021765,-0.00028453,0.07104939,-0.06724431,-0.00773727,-0.00015045,-0.0
 0035091,-0.00024405,0.00009130,0.00004423,0.00006321,-0.00001548,-0.00
 019011,0.00035982,0.00011400,0.00004376,-0.00014130,-0.00003539,0.0000
 5045,0.00010862,-0.00003037,-0.00001277,0.00009737,0.00002775,0.000007
 25,-0.00000183,0.00000453,-0.00000531,0.00002368,0.00021683,-0.0002410
 3,0.00006558,-0.00021743,-0.00012974,0.00010494,-0.00005958,0.00021903
 ,-0.00032040,-0.01909641,0.00586329,0.00305881,0.02911940,-0.00618878,
 -0.00394503,-0.07873092,0.06833481,-0.00002931,-0.00045741,0.00065193,
 0.00370043,0.00057174,-0.00651582,0.02915798,-0.00893382,-0.00355080,0
 .00016224,-0.00089517,0.00089049,-0.00008685,-0.00010472,-0.00008744,0
 .00005968,-0.00013533,0.00006326,-0.00076259,-0.00070243,-0.00049866,0
 .00088325,-0.00014963,0.00108875,0.02330924,-0.00671386,-0.04807861,-0
 .00010093,-0.00026438,-0.00024314,0.00031725,0.00015819,0.00013615,-0.
 00028378,0.00063436,0.00002766,-0.00034898,-0.00002382,0.00017357,-0.0
 0003506,0.00004205,0.00005500,-0.00000724,0.00001854,0.00006958,-0.000
 02214,0.00009683,-0.00003104,0.00000216,-0.00001715,0.00000852,-0.0000
 9500,-0.00019218,0.00006584,-0.00009944,0.00016769,0.00045041,-0.00045
 665,0.00002889,-0.00078973,-0.01697388,0.00651253,0.00181142,-0.010318
 95,0.00155873,0.00011769,-0.02790402,0.00850503,0.05379451,0.00020742,
 0.00016004,0.00024395,0.00017095,0.00055065,-0.00244812,0.00045401,-0.
 00036251,0.00012524,0.00004669,-0.00013560,0.00001753,-0.00005843,0.00
 031212,0.00015773,-0.00016586,-0.00051779,0.00037635,-0.00896783,-0.00
 288186,0.00018837,-0.00006383,0.00011208,0.00000436,-0.00009966,0.0003
 8872,0.00032493,-0.29255952,-0.07171212,-0.02554336,0.00024433,0.00006
 275,0.00162657,0.00003368,0.00005541,0.00000208,-0.00000382,0.00001670
 ,-0.00004417,-0.00007784,-0.00014331,-0.00014001,-0.00000850,0.0000310
 9,-0.00011215,0.00031652,0.00058443,-0.00015668,0.00029169,0.00019693,
 0.00001814,0.00003616,0.00001086,0.00001618,0.00001367,-0.00001061,-0.
 00002497,-0.00005924,-0.00000194,-0.00000013,-0.00010608,-0.00026929,-
 0.00019224,0.00006996,0.00003274,-0.00001652,-0.00011650,-0.00007709,-
 0.00011008,0.31698338,-0.00029507,0.00128773,-0.00053810,-0.00046474,-
 0.00081056,-0.00029305,0.00008280,-0.00019775,-0.00031220,-0.00005743,
 0.00006161,-0.00001006,0.00005750,-0.00029251,-0.00011696,0.00057589,0
 .00026984,-0.00008354,0.00230876,-0.00111424,0.00135716,-0.00009130,0.
 00004423,0.00006321,0.00015044,-0.00035092,-0.00024406,-0.07104473,-0.
 06724134,-0.00773620,-0.00020370,0.00021765,-0.00028457,-0.00002775,0.
 00000725,-0.00000183,-0.00000453,-0.00000531,0.00002368,0.00003539,0.0
 0005046,0.00010862,0.00003037,-0.00001277,0.00009737,0.00001547,-0.000
 19012,0.00035982,-0.00011401,0.00004376,-0.00014129,0.00000878,-0.0000
 0023,-0.00000207,0.00001620,0.00001285,0.00002620,-0.00003667,-0.00000
 331,-0.00001415,0.00012612,0.00014898,0.00021987,0.00009178,0.00005907
 ,-0.00000209,0.00007710,0.00016103,0.00005635,0.07872578,0.06833153,0.
 00002930,-0.00045742,0.00065193,-0.00370047,0.00057181,-0.00651577,0.0
 0076257,-0.00070244,-0.00049866,-0.00005968,-0.00013533,0.00006326,0.0
 0008685,-0.00010473,-0.00008745,-0.00016225,-0.00089517,0.00089049,-0.
 02915813,-0.00893319,-0.00355058,-0.00031724,0.00015820,0.00013615,0.0
 0010093,-0.00026439,-0.00024315,-0.02330757,-0.00671284,-0.04807825,-0
 .00088324,-0.00014961,0.00108875,0.00002214,0.00009683,-0.00003104,-0.
 00000216,-0.00001715,0.00000852,0.00003506,0.00004205,0.00005500,0.000
 00724,0.00001854,0.00006958,0.00028379,0.00063435,0.00002766,0.0003489
 8,-0.00002383,0.00017357,0.00007049,-0.00000353,-0.00000318,0.00003371
 ,0.00001461,0.00005461,-0.00013634,-0.00002476,-0.00003803,0.00005573,
 0.00034089,0.00022016,-0.00006625,-0.00008822,-0.00008040,0.00011008,0
 .00005635,0.00023732,0.02790225,0.00850386,0.05379409,-0.00026965,-0.0
 0019215,0.00019773,0.00051703,0.00130233,0.00018946,-0.00022157,0.0001
 9309,-0.00028537,0.00014996,0.00005428,-0.00007427,0.00018373,0.000052
 61,0.00015588,-0.00046214,-0.00032545,-0.00185454,-0.00114291,0.008624
 60,-0.00431111,0.00000852,-0.00005275,0.00000666,0.00023765,-0.0000893
 5,-0.00001783,-0.04966971,-0.02655362,0.01080491,-0.00035227,-0.000592
 62,0.00053899,-0.00001126,-0.00001883,0.00000300,-0.00005082,-0.000061
 90,0.00000724,0.00011749,-0.00014541,-0.00016278,-0.00002894,-0.000023
 99,-0.00009368,0.00023938,0.00022059,0.00007602,0.00025130,0.00059498,
 -0.00023558,-0.00003724,-0.00002653,-0.00001637,-0.00000888,0.00000883
 ,0.00002112,0.00002610,-0.00000685,0.00000150,0.00021611,0.00020356,0.
 00000658,-0.00032441,-0.00017116,0.00001044,0.00006996,-0.00009178,0.0
 0006624,-0.00151568,-0.02911952,0.01031900,0.05006622,-0.00041226,0.00
 116539,-0.00097534,-0.00037727,-0.00113108,-0.00033581,-0.00007040,-0.
 00012760,0.00022830,-0.00003659,-0.00007963,0.00001627,-0.00014337,0.0
 0006303,-0.00007853,-0.00003997,0.00095754,0.00028209,0.00058280,-0.00
 260574,0.00094871,0.00002014,0.00006620,-0.00004145,0.00003496,-0.0000
 3341,-0.00003394,-0.02511373,-0.29163346,0.08165563,0.00001831,0.00050
 216,-0.00027761,0.00004915,0.00000547,0.00000483,0.00004197,0.00004426
 ,-0.00000709,-0.00014836,0.00010842,0.00010043,0.00002494,-0.00000390,
 0.00005670,0.00011005,0.00020366,-0.00019254,0.00009377,-0.00006089,0.
 00009757,0.00001242,0.00001767,0.00001587,-0.00000270,-0.00000933,-0.0
 0001356,-0.00000849,-0.00000506,0.00000741,0.00000756,-0.00019535,0.00
 009218,0.00017117,0.00015001,0.00006783,-0.00003274,0.00005907,-0.0000
 8822,-0.00000672,-0.00618817,0.00155851,0.02783685,0.31394716,0.000612
 60,-0.00126339,0.00073411,0.00148995,0.00208456,0.00208638,-0.00042778
 ,0.00014080,-0.00022864,0.00009077,0.00005539,0.00007623,0.00042781,-0
 .00019212,-0.00039781,-0.00133757,-0.00123587,-0.00617104,0.00268023,0
 .03096403,-0.01195333,0.00004451,-0.00005580,-0.00001504,0.00005159,0.
 00000308,0.00000600,0.00935502,0.07828128,-0.07161368,-0.00046633,0.00
 118373,0.00141217,-0.00005830,-0.00006810,0.00001409,0.00007013,0.0000
 3620,0.00005011,-0.00019771,0.00009034,0.00029246,-0.00011663,0.000056
 88,0.00017372,-0.00000754,-0.00032623,0.00002540,-0.00041183,0.0018721
 5,-0.00072770,-0.00004720,-0.00002379,0.00000249,-0.00001573,0.0000090
 2,-0.00001858,0.00004831,-0.00001738,0.00000167,-0.00016779,-0.0001083
 9,-0.00002466,-0.00001044,0.00006783,0.00010343,0.00001652,-0.00000209
 ,-0.00008040,0.00002676,-0.00394482,0.00011761,-0.00886083,-0.08881498
 ,0.08030007,-0.00022926,-0.00028294,-0.00002260,0.00122243,0.00015615,
 0.00094820,0.00016216,0.00026480,-0.00012172,-0.00000862,0.00007401,-0
 .00021688,-0.00029459,0.00027778,-0.00006067,0.00017404,0.00021050,0.0
 0069442,0.00501522,-0.00721532,-0.00530536,-0.00007610,-0.00005044,0.0
 0009704,-0.00132986,0.00032876,0.00012447,-0.13478162,0.09294727,0.088
 03818,0.00021879,0.00020496,-0.00102806,-0.00000646,-0.00001011,0.0000
 0714,-0.00005775,-0.00005736,0.00000296,-0.00021028,0.00067658,-0.0008
 7314,0.00002507,-0.00006328,-0.00000650,-0.00016203,0.00006136,0.00016
 989,-0.00006529,-0.00017790,0.00001395,-0.00001142,-0.00001328,-0.0000
 0918,0.00002498,0.00001960,0.00004345,0.00001862,0.00000136,-0.0000016
 8,-0.00311057,-0.00017305,-0.00030325,0.00021611,-0.00000757,0.0001677
 9,-0.00010607,-0.00012611,-0.00005572,-0.01603237,0.01909689,0.0169741
 4,0.00179317,-0.00254709,-0.00306728,0.14682830,-0.00061420,-0.0002574
 9,-0.00031656,0.00000628,-0.00002858,-0.00027699,0.00024636,-0.0000812
 2,-0.00042393,0.00002403,0.00012636,0.00008726,0.00045351,-0.00044573,
 0.00043613,-0.00021307,0.00013665,-0.00023363,-0.00257249,0.00101614,0
 .00190872,-0.00010071,-0.00001147,0.00015238,0.00029523,-0.00063837,-0
 .00036814,0.09251230,-0.14469949,-0.09245173,-0.00020148,0.00032732,0.
 00061179,-0.00005461,0.00002456,-0.00002336,-0.00000553,-0.00005736,0.
 00004931,0.00100437,-0.00097577,0.00124751,-0.00010238,0.00003177,0.00
 004181,-0.00019746,-0.00001264,-0.00018513,-0.00003815,0.00006509,-0.0
 0016973,0.00000851,-0.00002722,-0.00002546,0.00003171,0.00002673,0.000
 07177,-0.00003683,0.00000801,-0.00002094,0.00017314,0.00096101,0.00031
 708,-0.00020357,-0.00019535,-0.00010839,0.00026930,0.00014897,0.000340
 89,-0.00541471,0.00586301,0.00651221,0.01820793,-0.01565422,-0.0177232
 9,-0.10368111,0.15348808,-0.00046717,0.00003773,0.00005941,0.00087721,
 0.00063874,0.00164835,-0.00025319,-0.00055448,-0.00051212,-0.00022526,
 -0.00002766,0.00014126,-0.00006493,-0.00000012,-0.00065701,0.00049368,
 -0.00124555,0.00124441,0.02004012,-0.01842736,-0.01651641,-0.00013743,
 0.00011956,0.00005142,0.00019561,-0.00043954,-0.00052632,0.08607692,-0
 .09142249,-0.13369682,-0.00327657,0.00092349,-0.00597238,0.00000329,0.
 00003280,-0.00001222,0.00013028,0.00005202,0.00009076,-0.00074750,0.00
 112191,0.00036050,-0.00002162,0.00003675,0.00045059,0.00012934,0.00021
 445,-0.00004836,0.00003603,-0.00011507,0.00023744,0.00003436,0.0000147
 8,-0.00000388,0.00003011,0.00000222,0.00004928,-0.00005685,-0.00001745
 ,-0.00002129,0.00030329,0.00031707,0.00081312,-0.00000658,0.00009218,-
 0.00002466,0.00019224,0.00021987,0.00022016,-0.00210728,0.00305871,0.0
 0181131,-0.00694807,0.00571974,0.00601464,-0.09548244,0.10031243,0.145
 74983,0.00011325,-0.00022297,-0.00007417,0.00190784,0.00024895,0.00014
 543,-0.00016347,0.00024496,0.00013926,0.00007862,0.00000727,0.00004025
 ,-0.00001333,-0.00012379,0.00004688,0.00028959,-0.00117986,0.00041529,
 0.00474933,0.00119305,0.02237042,0.00004447,-0.00004587,0.00003527,0.0
 0007812,-0.00000761,0.00000180,-0.00294744,0.00224328,0.00194488,-0.07
 128085,-0.00349146,-0.08032641,-0.00000171,-0.00002315,-0.00001322,-0.
 00000218,0.00000304,-0.00005096,0.00001612,-0.00003039,0.00001256,0.00
 000547,-0.00002090,-0.00002671,0.00003378,0.00005721,-0.00005450,0.000
 20930,0.00002425,-0.00026223,-0.00001968,-0.00000411,-0.00000460,-0.00
 002829,0.00000996,-0.00005478,0.00003466,-0.00000577,-0.00000826,0.000
 02498,-0.00003170,-0.00003011,-0.00000888,0.00000270,0.00001573,0.0000
 1367,-0.00001620,-0.00003371,0.00028571,0.00021742,0.00009945,-0.00007
 965,0.00002653,-0.00009681,0.00054523,0.00011531,0.00138712,0.07512502
 ,0.00014269,-0.00011432,-0.00068478,-0.00093790,0.00062520,0.00107215,
 0.00000156,0.00000249,0.00010345,0.00002818,0.00003851,-0.00007402,0.0
 0011190,0.00005905,0.00036102,-0.00086412,0.00091542,-0.00155090,-0.00
 586913,-0.00234026,-0.01502841,0.00002180,-0.00004111,0.00002422,-0.00
 002854,-0.00004408,0.00000555,0.00191864,-0.00141638,-0.00130563,-0.00
 229393,-0.04770361,-0.00883407,-0.00001268,-0.00001502,0.00002375,0.00
 002579,0.00000083,0.00004580,-0.00014457,0.00008086,0.00004268,0.00000
 020,-0.00001557,-0.00000585,0.00013523,-0.00004451,-0.00005181,0.00034
 889,-0.00062903,0.00034627,-0.00001857,-0.00000736,0.00001149,-0.00000
 996,0.00003109,-0.00000603,0.00001276,-0.00000104,-0.00000938,-0.00001
 960,0.00002673,0.00000222,-0.00000883,-0.00000933,0.00000902,0.0000106
 1,0.00001285,0.00001461,0.00025132,-0.00012974,0.00016769,0.00014748,0
 .00014532,-0.00034434,0.00005150,0.00048255,-0.00095087,0.00102961,0.0
 4813547,0.00027727,0.00114378,0.00032452,-0.00122160,-0.00092303,0.001
 25638,0.00014405,0.00004886,-0.00002952,-0.00003248,0.00001088,-0.0000
 7144,0.00018350,-0.00011961,0.00039392,-0.00039078,0.00135876,0.000135
 61,-0.00584031,-0.00009786,-0.01843242,0.00004411,-0.00004116,-0.00005
 796,-0.00007945,-0.00003102,-0.00002171,0.00357502,-0.00283667,-0.0013
 6125,-0.07716413,-0.01035954,-0.29252902,-0.00000157,0.00001726,0.0000
 2809,0.00005030,-0.00003540,0.00004451,-0.00016805,0.00014369,0.000136
 61,0.00007218,-0.00003755,0.00000816,0.00004311,0.00016158,0.00012954,
 -0.00002577,-0.00057821,0.00081877,0.00000480,-0.00000098,-0.00000482,
 0.00005478,-0.00000604,0.00004922,-0.00000084,0.00002123,0.00003260,-0
 .00004345,0.00007177,0.00004928,-0.00002112,-0.00001356,-0.00001858,0.
 00002497,0.00002620,0.00005461,0.00006283,0.00010494,0.00045040,-0.000
 05929,0.00000988,0.00024996,-0.00029140,0.00012043,-0.00125327,0.08360
 581,0.01300541,0.31832314,-0.00148658,-0.00136916,0.00047860,0.0011373
 3,0.00090234,-0.00005411,-0.00040493,0.00016066,-0.00026437,0.00029248
 ,-0.00003282,-0.00003210,0.00061310,0.00138153,-0.00027560,-0.00333478
 ,0.00103083,0.00237660,-0.00272130,0.02132943,-0.00859031,0.00004533,-
 0.00009264,-0.00001791,0.00019033,-0.00009530,0.00005324,0.00056225,-0
 .00038152,-0.00124897,-0.04817676,0.02687524,-0.01037906,-0.00002733,-
 0.00007079,0.00001429,-0.00000338,-0.00001756,0.00000371,-0.00003252,0
 .00002645,0.00004905,-0.00041389,0.00021616,0.00012589,0.00016147,0.00
 030437,0.00018216,-0.00019213,-0.00017107,0.00021806,-0.00005343,-0.00
 003212,0.00000219,-0.00001968,0.00001857,-0.00000480,0.00004867,-0.000
 01343,0.00000979,-0.00001142,-0.00000851,-0.00003436,-0.00003724,-0.00
 001242,0.00004720,0.00003616,-0.00000878,-0.00007049,-0.00006801,-0.00
 021683,0.00009499,0.00021725,-0.00017857,0.00048108,-0.00016526,-0.000
 19001,-0.00014835,-0.00184221,0.00941639,-0.00311713,0.05113074,-0.003
 39015,0.00087308,0.00052483,-0.00042849,-0.00155730,-0.00029372,0.0000
 4855,-0.00005145,0.00011304,-0.00011771,-0.00010940,-0.00008945,-0.000
 48852,-0.00071458,0.00057828,0.00307640,-0.00042550,-0.00225058,0.0017
 8527,-0.01553886,0.00572158,-0.00000740,0.00004975,-0.00003532,-0.0000
 3874,0.00004698,0.00000461,-0.00041694,0.00075324,0.00103140,0.0304839
 6,-0.28856181,0.09003798,0.00006722,0.00004809,0.00000608,-0.00000536,
 0.00000707,0.00000626,0.00007640,-0.00005558,-0.00009005,0.00031402,-0
 .00016318,-0.00013864,-0.00010485,0.00019181,0.00002183,-0.00006768,0.
 00021212,-0.00008649,0.00003212,0.00003355,0.00001066,0.00000411,-0.00
 000736,-0.00000098,-0.00000875,0.00000900,-0.00000220,0.00001328,-0.00
 002722,0.00001479,0.00002653,0.00001767,-0.00002379,-0.00001086,-0.000
 00023,-0.00000352,-0.00000097,-0.00024103,-0.00019218,0.00008531,0.000
 27781,-0.00065275,-0.00005321,0.00037401,0.00009238,-0.00061997,0.0032
 7925,-0.00129859,-0.03239991,0.31297840,0.00108468,0.00004933,-0.00096
 032,-0.00068575,0.00066495,0.00046043,0.00007796,-0.00016641,0.0001769
 3,-0.00004005,0.00000312,-0.00011093,-0.00002875,-0.00110167,0.0009435
 7,0.00292234,-0.00097972,-0.00217264,0.00091513,-0.01809919,0.00519051
 ,-0.00000703,0.00002426,-0.00002879,-0.00004379,0.00002588,0.00002959,
 -0.00009568,-0.00084950,0.00130941,-0.01216735,0.09209465,-0.08250634,
 0.00002979,0.00001407,0.00003030,0.00002322,-0.00000147,0.00002393,-0.
 00014554,0.00008746,0.00000724,0.00036231,-0.00022520,-0.00009176,0.00
 005404,0.00020890,-0.00003140,0.00013170,-0.00020074,0.00044679,-0.000
 00219,0.00001066,0.00001947,0.00000460,0.00001149,-0.00000482,-0.00000
 748,-0.00000396,-0.00000453,0.00000917,-0.00002546,-0.00000388,0.00001
 637,0.00001587,0.00000249,-0.00001618,-0.00000207,-0.00000318,-0.00027
 913,0.00006559,0.00006585,0.00040411,0.00004622,-0.00036735,-0.0001165
 4,0.00018400,0.00015353,-0.00261860,0.02863895,-0.00943713,0.00956535,
 -0.09731430,0.08712125,0.00023644,0.00080395,-0.00034578,-0.00378040,0
 .00259812,0.00276080,0.00027279,-0.00138850,0.00015682,0.00008307,-0.0
 0026733,-0.00002290,0.00015604,0.00026141,0.00008002,0.00075859,-0.001
 44435,-0.00043157,-0.01945610,-0.01148002,-0.00289514,-0.00022041,0.00
 026262,0.00012670,-0.00029230,0.00010279,-0.00006936,0.00012135,-0.000
 32996,-0.00112846,-0.25206974,-0.11296193,-0.01110382,0.00006681,0.000
 11638,0.00001865,0.00000309,0.00001206,-0.00001055,0.00004843,-0.00004
 685,-0.00003046,0.00001168,0.00002235,0.00001477,0.00024906,0.00083288
 ,0.00018199,-0.00018449,0.00011926,-0.00016064,0.00004867,0.00000875,0
 .00000748,0.00003466,-0.00001276,0.00000084,-0.00011693,-0.00003430,-0
 .00005722,0.00001862,0.00003683,0.00005685,0.00002610,0.00000849,-0.00
 004831,-0.00005924,0.00003667,0.00013634,0.00074898,0.00005957,0.00045
 664,0.00008127,0.00008763,-0.00010551,0.00040343,0.00027835,0.00001365
 ,-0.00716745,-0.00344673,0.00031464,0.00455575,0.00214633,0.00065330,0
 .27542221,-0.00185627,0.00072642,0.00069196,0.00354939,-0.00320918,-0.
 00189763,0.00052974,0.00060258,-0.00001667,0.00002457,0.00017296,0.000
 01018,-0.00010920,0.00024389,0.00004352,0.00072423,0.00049146,-0.00007
 508,0.01479663,0.00630733,0.00065596,0.00011592,-0.00010137,-0.0000513
 1,0.00001352,-0.00002207,0.00000371,-0.00005805,0.00006529,0.00041164,
 -0.11540831,-0.10947105,-0.00615826,-0.00003748,-0.00001492,-0.0000035
 8,0.00001603,-0.00001171,0.00001015,-0.00003886,0.00001818,0.00003575,
 -0.00004899,0.00003004,0.00002202,0.00020326,-0.00025295,-0.00030297,-
 0.00019468,0.00011285,0.00026586,0.00001343,0.00000900,-0.00000396,0.0
 0000577,-0.00000104,0.00002123,0.00003430,0.00005656,0.00003866,-0.000
 00136,0.00000801,-0.00001745,0.00000685,-0.00000506,-0.00001738,0.0000
 0194,-0.00000331,-0.00002476,0.00004288,0.00021902,0.00002888,-0.00006
 053,0.00001466,-0.00007196,0.00008728,0.00000465,0.00019378,0.00040021
 ,-0.00132427,0.00013457,-0.02637052,-0.01169833,-0.00317569,0.12361829
 ,0.11703238,0.00056912,-0.00009922,0.00028567,0.00288499,-0.00169032,-
 0.00092476,0.00018807,0.00074681,0.00014614,-0.00002049,0.00009805,-0.
 00005761,-0.00003958,0.00012173,-0.00020097,-0.00013537,0.00068197,0.0
 0051872,0.01398257,0.00916888,-0.00027055,0.00019079,-0.00017140,-0.00
 013815,-0.00000159,0.00000746,0.00005943,0.00047496,0.00061051,0.00046
 832,-0.01301817,-0.00714247,-0.04832402,-0.00000874,-0.00002760,0.0000
 0891,0.00000020,-0.00001945,0.00001472,0.00005264,-0.00001788,-0.00001
 853,-0.00004876,0.00002039,0.00000906,-0.00013951,-0.00023990,0.000173
 94,-0.00022076,-0.00014052,-0.00013883,-0.00000979,-0.00000220,-0.0000
 0453,0.00000826,-0.00000938,0.00003260,0.00005722,0.00003866,0.0000754
 2,0.00000168,-0.00002094,-0.00002129,-0.00000150,0.00000741,0.00000167
 ,0.00000013,-0.00001415,-0.00003803,0.00008157,-0.00032040,-0.00078973
 ,0.00011083,-0.00004910,-0.00006228,-0.00031924,-0.00006642,0.00014874
 ,-0.02660510,-0.01502819,0.00073181,0.01053535,0.00430884,-0.00025819,
 0.01143023,0.00924884,0.04857235\\0.,-0.00001253,0.00000092,-0.0000000
 1,0.00000192,0.00001496,0.00001898,0.00001280,-0.00002146,0.00000378,-
 0.00000552,0.00000454,-0.00000002,-0.00000256,-0.00000068,-0.00000376,
 -0.00000554,0.00000452,-0.00001897,0.00001281,-0.00002149,0.00000498,0
 .00000556,0.00000226,-0.00001152,-0.00000391,0.00000289,0.00001149,-0.
 00000394,0.00000289,-0.00000494,0.00000556,0.00000225,-0.00000160,-0.0
 0001127,0.00000393,-0.00000244,0.00000079,-0.00000832,0.00000001,0.000
 00240,0.00001051,0.,0.00000660,0.00000435,0.00000162,-0.00001127,0.000
 00393,0.00000244,0.00000080,-0.00000830,0.,-0.00000329,0.00000399,0.00
 000125,0.00000310,-0.00000771,-0.00000885,0.00000186,-0.00000267,0.000
 02151,0.00000586,0.00000384,0.00000320,-0.00000501,0.00000034,-0.00000
 294,0.00000112,0.00000336,0.00000295,0.00000113,0.00000336,-0.00000320
 ,-0.00000500,0.00000035,-0.00002153,0.00000586,0.00000383,-0.00000126,
 0.00000311,-0.00000771,-0.00000001,-0.00000329,0.00000401,0.00000884,0
 .00000186,-0.00000268\\\@
 The archive entry for this job was punched.


 MEMORIES ARE LIKE AN ENGLISH GRAMMER LESSON -
 PRESENT TENSE, AND PAST PERFECT.
 Job cpu time:       0 days 19 hours 42 minutes 35.1 seconds.
 Elapsed time:       0 days  0 hours 59 minutes  8.7 seconds.
 File lengths (MBytes):  RWF=    856 Int=      0 D2E=      0 Chk=     24 Scr=      1
 Normal termination of Gaussian 16 at Tue Jan  7 18:14:35 2025.
