 Entering Gaussian System, Link 0=g16
 Input=gjfs/data_set_12-catalyst-25.gjf
 Output=gjfs/data_set_12-catalyst-25.log
 Initial command:
 /usr/local/intel/g16/l1.exe "/scr/Gau-4139205.inp" -scrdir="/scr/"
 Entering Link 1 = /usr/local/intel/g16/l1.exe PID=   4139214.
  
 Copyright (c) 1988-2019, Gaussian, Inc.  All Rights Reserved.
  
 This is part of the Gaussian(R) 16 program.  It is based on
 the Gaussian(R) 09 system (copyright 2009, Gaussian, Inc.),
 the Gaussian(R) 03 system (copyright 2003, Gaussian, Inc.),
 the Gaussian(R) 98 system (copyright 1998, Gaussian, Inc.),
 the Gaussian(R) 94 system (copyright 1995, Gaussian, Inc.),
 the Gaussian 92(TM) system (copyright 1992, Gaussian, Inc.),
 the Gaussian 90(TM) system (copyright 1990, Gaussian, Inc.),
 the Gaussian 88(TM) system (copyright 1988, Gaussian, Inc.),
 the Gaussian 86(TM) system (copyright 1986, Carnegie Mellon
 University), and the Gaussian 82(TM) system (copyright 1983,
 Carnegie Mellon University). Gaussian is a federally registered
 trademark of Gaussian, Inc.
  
 This software contains proprietary and confidential information,
 including trade secrets, belonging to Gaussian, Inc.
  
 This software is provided under written license and may be
 used, copied, transmitted, or stored only in accord with that
 written license.
  
 The following legend is applicable only to US Government
 contracts under FAR:
  
                    RESTRICTED RIGHTS LEGEND
  
 Use, reproduction and disclosure by the US Government is
 subject to restrictions as set forth in subparagraphs (a)
 and (c) of the Commercial Computer Software - Restricted
 Rights clause in FAR 52.227-19.
  
 Gaussian, Inc.
 340 Quinnipiac St., Bldg. 40, Wallingford CT 06492
  
  
 ---------------------------------------------------------------
 Warning -- This program may not be used in any manner that
 competes with the business of Gaussian, Inc. or will provide
 assistance to any competitor of Gaussian, Inc.  The licensee
 of this program is prohibited from giving any competitor of
 Gaussian, Inc. access to this program.  By using this program,
 the user acknowledges that Gaussian, Inc. is engaged in the
 business of creating and licensing software in the field of
 computational chemistry and represents and warrants to the
 licensee that it is not a competitor of Gaussian, Inc. and that
 it will not use this program in any manner prohibited above.
 ---------------------------------------------------------------
  

 Cite this work as:
 Gaussian 16, Revision C.01,
 M. J. Frisch, G. W. Trucks, H. B. Schlegel, G. E. Scuseria, 
 M. A. Robb, J. R. Cheeseman, G. Scalmani, V. Barone, 
 G. A. Petersson, H. Nakatsuji, X. Li, M. Caricato, A. V. Marenich, 
 J. Bloino, B. G. Janesko, R. Gomperts, B. Mennucci, H. P. Hratchian, 
 J. V. Ortiz, A. F. Izmaylov, J. L. Sonnenberg, D. Williams-Young, 
 F. Ding, F. Lipparini, F. Egidi, J. Goings, B. Peng, A. Petrone, 
 T. Henderson, D. Ranasinghe, V. G. Zakrzewski, J. Gao, N. Rega, 
 G. Zheng, W. Liang, M. Hada, M. Ehara, K. Toyota, R. Fukuda, 
 J. Hasegawa, M. Ishida, T. Nakajima, Y. Honda, O. Kitao, H. Nakai, 
 T. Vreven, K. Throssell, J. A. Montgomery, Jr., J. E. Peralta, 
 F. Ogliaro, M. J. Bearpark, J. J. Heyd, E. N. Brothers, K. N. Kudin, 
 V. N. Staroverov, T. A. Keith, R. Kobayashi, J. Normand, 
 K. Raghavachari, A. P. Rendell, J. C. Burant, S. S. Iyengar, 
 J. Tomasi, M. Cossi, J. M. Millam, M. Klene, C. Adamo, R. Cammi, 
 J. W. Ochterski, R. L. Martin, K. Morokuma, O. Farkas, 
 J. B. Foresman, and D. J. Fox, Gaussian, Inc., Wallingford CT, 2019.
 
 ******************************************
 Gaussian 16:  ES64L-G16RevC.01  3-Jul-2019
                 7-Jan-2025 
 ******************************************
 %nprocshared=20
 Will use up to   20 processors via shared memory.
 %mem=30GB
 %chk=outputs/data_set_12-catalyst-25.chk
 ----------------------------------
 #p M062X/DEF2TZVP opt freq pop=NBO
 ----------------------------------
 1/18=20,19=15,26=3,38=1/1,3;
 2/9=110,12=2,17=6,18=5,40=1/2;
 3/5=44,7=101,11=2,25=1,30=1,71=1,74=-55/1,2,3;
 4//1;
 5/5=2,38=5/2;
 6/7=2,8=2,9=2,10=2,28=1,40=1/1,7;
 7//1,2,3,16;
 1/18=20,19=15,26=3/3(2);
 2/9=110/2;
 99//99;
 2/9=110/2;
 3/5=44,7=101,11=2,25=1,30=1,71=1,74=-55/1,2,3;
 4/5=5,16=3,69=1/1;
 5/5=2,38=5/2;
 7//1,2,3,16;
 1/18=20,19=15,26=3/3(-5);
 2/9=110/2;
 6/7=2,8=2,9=2,10=2,19=2,28=1,40=1/1,7;
 99/9=1/99;
 Leave Link    1 at Tue Jan  7 16:43:06 2025, MaxMem=  4026531840 cpu:               0.8 elap:               0.2
 (Enter /usr/local/intel/g16/l101.exe)
 -----------------------
 data_set_12-catalyst-25
 -----------------------
 Symbolic Z-matrix:
 Charge =  0 Multiplicity = 2
 O                    -0.02528  -1.83339  -0.15311 
 N                     0.00551  -0.54408  -0.23257 
 C                    -1.33984   0.11319  -0.01295 
 C                    -1.37361   1.6077   -0.34029 
 C                     1.61911   1.17801  -1.09453 
 C                     1.34822   0.11543  -0.017 
 C                    -2.32549  -0.59612  -0.95259 
 C                    -1.76423  -0.1239    1.44763 
 C                     1.43723   0.71137   1.39596 
 C                     2.41892  -0.97412  -0.15031 
 H                    -1.1255    1.79098  -1.39446 
 H                    -0.7148    2.20886   0.29842 
 H                     1.45417   0.75088  -2.0945 
 H                     2.67438   1.48272  -1.02327 
 H                    -2.39263  -1.66222  -0.70464 
 H                    -1.99406  -0.49043  -1.9965 
 H                    -3.31548  -0.12698  -0.84523 
 H                    -1.2076    0.5254    2.13819 
 H                    -1.57667  -1.17644   1.70693 
 H                    -2.84008   0.08173   1.56105 
 H                     2.46426   1.068     1.57856 
 H                     1.20521  -0.06121   2.14332 
 H                     0.75401   1.55924   1.54275 
 H                     2.31025  -1.73511   0.63177 
 H                     3.40535  -0.49162  -0.06091 
 H                     2.34394  -1.46941  -1.12651 
 H                    -2.40487   1.95681  -0.17355 
 H                     1.00189   2.07519  -0.98407 
 
 ITRead=  0  0  0  0  0  0  0  0  0  0  0  0  0  0  0  0  0  0  0  0
 ITRead=  0  0  0  0  0  0  0  0
 MicOpt= -1 -1 -1 -1 -1 -1 -1 -1 -1 -1 -1 -1 -1 -1 -1 -1 -1 -1 -1 -1
 MicOpt= -1 -1 -1 -1 -1 -1 -1 -1
 NAtoms=     28 NQM=       28 NQMF=       0 NMMI=      0 NMMIF=      0
                NMic=       0 NMicF=      0.
                    Isotopes and Nuclear Properties:
 (Nuclear quadrupole moments (NQMom) in fm**2, nuclear magnetic moments (NMagM)
  in nuclear magnetons)

  Atom         1           2           3           4           5           6           7           8           9          10
 IAtWgt=          16          14          12          12          12          12          12          12          12          12
 AtmWgt=  15.9949146  14.0030740  12.0000000  12.0000000  12.0000000  12.0000000  12.0000000  12.0000000  12.0000000  12.0000000
 NucSpn=           0           2           0           0           0           0           0           0           0           0
 AtZEff=  -0.0000000  -0.0000000  -0.0000000  -0.0000000  -0.0000000  -0.0000000  -0.0000000  -0.0000000  -0.0000000  -0.0000000
 NQMom=    0.0000000   2.0440000   0.0000000   0.0000000   0.0000000   0.0000000   0.0000000   0.0000000   0.0000000   0.0000000
 NMagM=    0.0000000   0.4037610   0.0000000   0.0000000   0.0000000   0.0000000   0.0000000   0.0000000   0.0000000   0.0000000
 AtZNuc=   8.0000000   7.0000000   6.0000000   6.0000000   6.0000000   6.0000000   6.0000000   6.0000000   6.0000000   6.0000000

  Atom        11          12          13          14          15          16          17          18          19          20
 IAtWgt=           1           1           1           1           1           1           1           1           1           1
 AtmWgt=   1.0078250   1.0078250   1.0078250   1.0078250   1.0078250   1.0078250   1.0078250   1.0078250   1.0078250   1.0078250
 NucSpn=           1           1           1           1           1           1           1           1           1           1
 AtZEff=  -0.0000000  -0.0000000  -0.0000000  -0.0000000  -0.0000000  -0.0000000  -0.0000000  -0.0000000  -0.0000000  -0.0000000
 NQMom=    0.0000000   0.0000000   0.0000000   0.0000000   0.0000000   0.0000000   0.0000000   0.0000000   0.0000000   0.0000000
 NMagM=    2.7928460   2.7928460   2.7928460   2.7928460   2.7928460   2.7928460   2.7928460   2.7928460   2.7928460   2.7928460
 AtZNuc=   1.0000000   1.0000000   1.0000000   1.0000000   1.0000000   1.0000000   1.0000000   1.0000000   1.0000000   1.0000000

  Atom        21          22          23          24          25          26          27          28
 IAtWgt=           1           1           1           1           1           1           1           1
 AtmWgt=   1.0078250   1.0078250   1.0078250   1.0078250   1.0078250   1.0078250   1.0078250   1.0078250
 NucSpn=           1           1           1           1           1           1           1           1
 AtZEff=  -0.0000000  -0.0000000  -0.0000000  -0.0000000  -0.0000000  -0.0000000  -0.0000000  -0.0000000
 NQMom=    0.0000000   0.0000000   0.0000000   0.0000000   0.0000000   0.0000000   0.0000000   0.0000000
 NMagM=    2.7928460   2.7928460   2.7928460   2.7928460   2.7928460   2.7928460   2.7928460   2.7928460
 AtZNuc=   1.0000000   1.0000000   1.0000000   1.0000000   1.0000000   1.0000000   1.0000000   1.0000000
 Leave Link  101 at Tue Jan  7 16:43:08 2025, MaxMem=  4026531840 cpu:              18.1 elap:               1.1
 (Enter /usr/local/intel/g16/l103.exe)

 GradGradGradGradGradGradGradGradGradGradGradGradGradGradGradGradGradGrad
 Berny optimization.
 Initialization pass.
                           ----------------------------
                           !    Initial Parameters    !
                           ! (Angstroms and Degrees)  !
 --------------------------                            --------------------------
 ! Name  Definition              Value          Derivative Info.                !
 --------------------------------------------------------------------------------
 ! R1    R(1,2)                  1.2921         estimate D2E/DX2                !
 ! R2    R(2,3)                  1.5134         estimate D2E/DX2                !
 ! R3    R(2,6)                  1.5114         estimate D2E/DX2                !
 ! R4    R(3,4)                  1.5303         estimate D2E/DX2                !
 ! R5    R(3,7)                  1.5354         estimate D2E/DX2                !
 ! R6    R(3,8)                  1.5394         estimate D2E/DX2                !
 ! R7    R(4,11)                 1.0984         estimate D2E/DX2                !
 ! R8    R(4,12)                 1.097          estimate D2E/DX2                !
 ! R9    R(4,27)                 1.1014         estimate D2E/DX2                !
 ! R10   R(5,6)                  1.5374         estimate D2E/DX2                !
 ! R11   R(5,13)                 1.0998         estimate D2E/DX2                !
 ! R12   R(5,14)                 1.1007         estimate D2E/DX2                !
 ! R13   R(5,28)                 1.0946         estimate D2E/DX2                !
 ! R14   R(6,9)                  1.5361         estimate D2E/DX2                !
 ! R15   R(6,10)                 1.5334         estimate D2E/DX2                !
 ! R16   R(7,15)                 1.0966         estimate D2E/DX2                !
 ! R17   R(7,16)                 1.1004         estimate D2E/DX2                !
 ! R18   R(7,17)                 1.1008         estimate D2E/DX2                !
 ! R19   R(8,18)                 1.0992         estimate D2E/DX2                !
 ! R20   R(8,19)                 1.1001         estimate D2E/DX2                !
 ! R21   R(8,20)                 1.1012         estimate D2E/DX2                !
 ! R22   R(9,21)                 1.1024         estimate D2E/DX2                !
 ! R23   R(9,22)                 1.0997         estimate D2E/DX2                !
 ! R24   R(9,23)                 1.0987         estimate D2E/DX2                !
 ! R25   R(10,24)                1.0966         estimate D2E/DX2                !
 ! R26   R(10,25)                1.1017         estimate D2E/DX2                !
 ! R27   R(10,26)                1.0972         estimate D2E/DX2                !
 ! A1    A(1,2,3)              113.7821         estimate D2E/DX2                !
 ! A2    A(1,2,6)              116.6036         estimate D2E/DX2                !
 ! A3    A(3,2,6)              125.4194         estimate D2E/DX2                !
 ! A4    A(2,3,4)              114.3764         estimate D2E/DX2                !
 ! A5    A(2,3,7)              106.3332         estimate D2E/DX2                !
 ! A6    A(2,3,8)              108.4145         estimate D2E/DX2                !
 ! A7    A(4,3,7)              107.8233         estimate D2E/DX2                !
 ! A8    A(4,3,8)              110.3219         estimate D2E/DX2                !
 ! A9    A(7,3,8)              109.4227         estimate D2E/DX2                !
 ! A10   A(3,4,11)             111.3015         estimate D2E/DX2                !
 ! A11   A(3,4,12)             113.415          estimate D2E/DX2                !
 ! A12   A(3,4,27)             107.3266         estimate D2E/DX2                !
 ! A13   A(11,4,12)            109.372          estimate D2E/DX2                !
 ! A14   A(11,4,27)            107.6923         estimate D2E/DX2                !
 ! A15   A(12,4,27)            107.4855         estimate D2E/DX2                !
 ! A16   A(6,5,13)             110.0241         estimate D2E/DX2                !
 ! A17   A(6,5,14)             108.3548         estimate D2E/DX2                !
 ! A18   A(6,5,28)             113.3549         estimate D2E/DX2                !
 ! A19   A(13,5,14)            108.0692         estimate D2E/DX2                !
 ! A20   A(13,5,28)            108.9962         estimate D2E/DX2                !
 ! A21   A(14,5,28)            107.889          estimate D2E/DX2                !
 ! A22   A(2,6,5)              110.9878         estimate D2E/DX2                !
 ! A23   A(2,6,9)              110.6082         estimate D2E/DX2                !
 ! A24   A(2,6,10)             107.33           estimate D2E/DX2                !
 ! A25   A(5,6,9)              111.4909         estimate D2E/DX2                !
 ! A26   A(5,6,10)             107.8862         estimate D2E/DX2                !
 ! A27   A(9,6,10)             108.3716         estimate D2E/DX2                !
 ! A28   A(3,7,15)             110.49           estimate D2E/DX2                !
 ! A29   A(3,7,16)             110.0516         estimate D2E/DX2                !
 ! A30   A(3,7,17)             108.7089         estimate D2E/DX2                !
 ! A31   A(15,7,16)            109.0456         estimate D2E/DX2                !
 ! A32   A(15,7,17)            109.7073         estimate D2E/DX2                !
 ! A33   A(16,7,17)            108.8131         estimate D2E/DX2                !
 ! A34   A(3,8,18)             111.4381         estimate D2E/DX2                !
 ! A35   A(3,8,19)             108.9051         estimate D2E/DX2                !
 ! A36   A(3,8,20)             109.7739         estimate D2E/DX2                !
 ! A37   A(18,8,19)            109.3137         estimate D2E/DX2                !
 ! A38   A(18,8,20)            108.6462         estimate D2E/DX2                !
 ! A39   A(19,8,20)            108.7201         estimate D2E/DX2                !
 ! A40   A(6,9,21)             109.3812         estimate D2E/DX2                !
 ! A41   A(6,9,22)             109.8984         estimate D2E/DX2                !
 ! A42   A(6,9,23)             112.721          estimate D2E/DX2                !
 ! A43   A(21,9,22)            108.1356         estimate D2E/DX2                !
 ! A44   A(21,9,23)            107.9115         estimate D2E/DX2                !
 ! A45   A(22,9,23)            108.672          estimate D2E/DX2                !
 ! A46   A(6,10,24)            111.2154         estimate D2E/DX2                !
 ! A47   A(6,10,25)            107.8748         estimate D2E/DX2                !
 ! A48   A(6,10,26)            110.5099         estimate D2E/DX2                !
 ! A49   A(24,10,25)           109.558          estimate D2E/DX2                !
 ! A50   A(24,10,26)           108.3307         estimate D2E/DX2                !
 ! A51   A(25,10,26)           109.3341         estimate D2E/DX2                !
 ! D1    D(1,2,3,4)           -169.9301         estimate D2E/DX2                !
 ! D2    D(1,2,3,7)            -51.0512         estimate D2E/DX2                !
 ! D3    D(1,2,3,8)             66.5159         estimate D2E/DX2                !
 ! D4    D(6,2,3,4)             34.0195         estimate D2E/DX2                !
 ! D5    D(6,2,3,7)            152.8984         estimate D2E/DX2                !
 ! D6    D(6,2,3,8)            -89.5346         estimate D2E/DX2                !
 ! D7    D(1,2,6,5)            133.6819         estimate D2E/DX2                !
 ! D8    D(1,2,6,9)           -102.0223         estimate D2E/DX2                !
 ! D9    D(1,2,6,10)            16.0171         estimate D2E/DX2                !
 ! D10   D(3,2,6,5)            -70.8657         estimate D2E/DX2                !
 ! D11   D(3,2,6,9)             53.4302         estimate D2E/DX2                !
 ! D12   D(3,2,6,10)           171.4696         estimate D2E/DX2                !
 ! D13   D(2,3,4,11)            60.5248         estimate D2E/DX2                !
 ! D14   D(2,3,4,12)           -63.3116         estimate D2E/DX2                !
 ! D15   D(2,3,4,27)           178.1275         estimate D2E/DX2                !
 ! D16   D(7,3,4,11)           -57.5094         estimate D2E/DX2                !
 ! D17   D(7,3,4,12)           178.6542         estimate D2E/DX2                !
 ! D18   D(7,3,4,27)            60.0933         estimate D2E/DX2                !
 ! D19   D(8,3,4,11)          -176.9523         estimate D2E/DX2                !
 ! D20   D(8,3,4,12)            59.2113         estimate D2E/DX2                !
 ! D21   D(8,3,4,27)           -59.3496         estimate D2E/DX2                !
 ! D22   D(2,3,7,15)            61.1731         estimate D2E/DX2                !
 ! D23   D(2,3,7,16)           -59.3064         estimate D2E/DX2                !
 ! D24   D(2,3,7,17)          -178.3876         estimate D2E/DX2                !
 ! D25   D(4,3,7,15)          -175.7345         estimate D2E/DX2                !
 ! D26   D(4,3,7,16)            63.7859         estimate D2E/DX2                !
 ! D27   D(4,3,7,17)           -55.2953         estimate D2E/DX2                !
 ! D28   D(8,3,7,15)           -55.7225         estimate D2E/DX2                !
 ! D29   D(8,3,7,16)          -176.202          estimate D2E/DX2                !
 ! D30   D(8,3,7,17)            64.7167         estimate D2E/DX2                !
 ! D31   D(2,3,8,18)            75.7155         estimate D2E/DX2                !
 ! D32   D(2,3,8,19)           -44.9525         estimate D2E/DX2                !
 ! D33   D(2,3,8,20)          -163.8749         estimate D2E/DX2                !
 ! D34   D(4,3,8,18)           -50.2415         estimate D2E/DX2                !
 ! D35   D(4,3,8,19)          -170.9095         estimate D2E/DX2                !
 ! D36   D(4,3,8,20)            70.168          estimate D2E/DX2                !
 ! D37   D(7,3,8,18)          -168.7103         estimate D2E/DX2                !
 ! D38   D(7,3,8,19)            70.6217         estimate D2E/DX2                !
 ! D39   D(7,3,8,20)           -48.3007         estimate D2E/DX2                !
 ! D40   D(13,5,6,2)           -50.749          estimate D2E/DX2                !
 ! D41   D(13,5,6,9)          -174.5421         estimate D2E/DX2                !
 ! D42   D(13,5,6,10)           66.5766         estimate D2E/DX2                !
 ! D43   D(14,5,6,2)          -168.7011         estimate D2E/DX2                !
 ! D44   D(14,5,6,9)            67.5058         estimate D2E/DX2                !
 ! D45   D(14,5,6,10)          -51.3755         estimate D2E/DX2                !
 ! D46   D(28,5,6,2)            71.5772         estimate D2E/DX2                !
 ! D47   D(28,5,6,9)           -52.2159         estimate D2E/DX2                !
 ! D48   D(28,5,6,10)         -171.0972         estimate D2E/DX2                !
 ! D49   D(2,6,9,21)           172.6074         estimate D2E/DX2                !
 ! D50   D(2,6,9,22)            54.0363         estimate D2E/DX2                !
 ! D51   D(2,6,9,23)           -67.3423         estimate D2E/DX2                !
 ! D52   D(5,6,9,21)           -63.385          estimate D2E/DX2                !
 ! D53   D(5,6,9,22)           178.0439         estimate D2E/DX2                !
 ! D54   D(5,6,9,23)            56.6653         estimate D2E/DX2                !
 ! D55   D(10,6,9,21)           55.2065         estimate D2E/DX2                !
 ! D56   D(10,6,9,22)          -63.3647         estimate D2E/DX2                !
 ! D57   D(10,6,9,23)          175.2567         estimate D2E/DX2                !
 ! D58   D(2,6,10,24)          -63.5112         estimate D2E/DX2                !
 ! D59   D(2,6,10,25)          176.3231         estimate D2E/DX2                !
 ! D60   D(2,6,10,26)           56.8474         estimate D2E/DX2                !
 ! D61   D(5,6,10,24)          176.8218         estimate D2E/DX2                !
 ! D62   D(5,6,10,25)           56.6561         estimate D2E/DX2                !
 ! D63   D(5,6,10,26)          -62.8196         estimate D2E/DX2                !
 ! D64   D(9,6,10,24)           55.9705         estimate D2E/DX2                !
 ! D65   D(9,6,10,25)          -64.1952         estimate D2E/DX2                !
 ! D66   D(9,6,10,26)          176.3291         estimate D2E/DX2                !
 --------------------------------------------------------------------------------
 Trust Radius=3.00D-01 FncErr=1.00D-07 GrdErr=1.00D-06 EigMax=2.50D+02 EigMin=1.00D-04
 Number of steps in this run=    154 maximum allowed number of steps=    168.
 GradGradGradGradGradGradGradGradGradGradGradGradGradGradGradGradGradGrad

 Leave Link  103 at Tue Jan  7 16:43:08 2025, MaxMem=  4026531840 cpu:               0.3 elap:               0.1
 (Enter /usr/local/intel/g16/l202.exe)
                          Input orientation:                          
 ---------------------------------------------------------------------
 Center     Atomic      Atomic             Coordinates (Angstroms)
 Number     Number       Type             X           Y           Z
 ---------------------------------------------------------------------
      1          8           0       -0.025283   -1.833393   -0.153114
      2          7           0        0.005513   -0.544084   -0.232569
      3          6           0       -1.339844    0.113190   -0.012946
      4          6           0       -1.373612    1.607703   -0.340292
      5          6           0        1.619114    1.178005   -1.094532
      6          6           0        1.348216    0.115425   -0.016997
      7          6           0       -2.325485   -0.596119   -0.952589
      8          6           0       -1.764225   -0.123900    1.447632
      9          6           0        1.437229    0.711374    1.395962
     10          6           0        2.418924   -0.974122   -0.150313
     11          1           0       -1.125495    1.790983   -1.394462
     12          1           0       -0.714797    2.208858    0.298418
     13          1           0        1.454170    0.750884   -2.094496
     14          1           0        2.674375    1.482719   -1.023272
     15          1           0       -2.392627   -1.662224   -0.704643
     16          1           0       -1.994058   -0.490434   -1.996504
     17          1           0       -3.315478   -0.126981   -0.845230
     18          1           0       -1.207601    0.525402    2.138192
     19          1           0       -1.576674   -1.176437    1.706934
     20          1           0       -2.840081    0.081730    1.561048
     21          1           0        2.464264    1.067997    1.578563
     22          1           0        1.205209   -0.061207    2.143318
     23          1           0        0.754006    1.559239    1.542754
     24          1           0        2.310250   -1.735111    0.631772
     25          1           0        3.405348   -0.491619   -0.060907
     26          1           0        2.343936   -1.469405   -1.126515
     27          1           0       -2.404868    1.956811   -0.173550
     28          1           0        1.001887    2.075188   -0.984074
 ---------------------------------------------------------------------
                    Distance matrix (angstroms):
                    1          2          3          4          5
     1  O    0.000000
     2  N    1.292122   0.000000
     3  C    2.353062   1.513350   0.000000
     4  C    3.700563   2.558081   1.530315   0.000000
     5  C    3.557925   2.512425   3.325521   3.116076   0.000000
     6  C    2.388079   1.511382   2.688064   3.120859   1.537382
     7  C    2.731471   2.440223   1.535427   2.477459   4.327531
     8  C    2.916963   2.476207   1.539350   2.519464   4.427701
     9  C    3.318798   2.505613   3.170959   3.423275   2.540352
    10  C    2.590850   2.452805   3.915285   4.591867   2.482518
    11  H    3.985914   2.842835   2.183923   1.098375   2.828176
    12  H    4.125422   2.894734   2.208949   1.096985   2.906907
    13  H    3.554748   2.691156   3.542036   3.436237   1.099803
    14  H    4.363706   3.443249   4.360083   4.107101   1.100684
    15  H    2.436760   2.687781   2.176900   3.444353   4.930819
    16  H    3.012922   2.666951   2.174134   2.744116   4.080717
    17  H    3.770444   3.402692   2.157199   2.652345   5.110317
    18  H    3.494549   2.869835   2.194266   2.709579   4.343583
    19  H    2.509618   2.581639   2.162687   3.461763   4.858464
    20  H    3.811710   3.421419   2.174663   2.845034   5.304559
    21  H    4.196977   3.453181   4.232705   4.324648   2.805676
    22  H    3.150929   2.705047   3.340237   3.950177   3.491509
    23  H    3.872107   2.852364   2.982527   2.841649   2.801612
    24  H    2.465851   2.734491   4.141867   5.068545   3.456015
    25  H    3.684846   3.404570   4.783821   5.227205   2.654554
    26  H    2.587121   2.669004   4.161115   4.889469   2.745026
    27  H    4.475320   3.473888   2.135183   1.101439   4.200854
    28  H    4.125843   2.901397   3.205656   2.505193   1.094581
                    6          7          8          9         10
     6  C    0.000000
     7  C    3.857163   0.000000
     8  C    3.448145   2.509794   0.000000
     9  C    1.536077   4.624202   3.309027   0.000000
    10  C    1.533395   4.826588   4.557965   2.489094   0.000000
    11  H    3.290008   2.708041   3.486008   3.939489   4.664399
    12  H    2.956006   3.468030   2.804238   2.842231   4.489201
    13  H    2.175095   4.171829   4.865181   3.490723   2.772408
    14  H    2.154247   5.415271   5.328017   2.824570   2.619805
    15  H    4.198428   1.096615   2.719121   4.971348   4.892013
    16  H    3.931451   1.100351   3.471202   4.972615   4.807992
    17  H    4.742865   1.100774   2.768323   5.321091   5.838144
    18  H    3.368252   3.472809   1.099225   2.753292   4.542853
    19  H    3.632606   2.823216   1.100112   3.569894   4.410794
    20  H    4.475846   2.653801   1.101187   4.326556   5.630339
    21  H    2.167664   5.667249   4.395211   1.102417   2.676064
    22  H    2.172236   4.726158   3.050483   1.099662   2.750866
    23  H    2.206923   4.511715   3.030428   1.098734   3.472225
    24  H    2.184238   5.029666   4.456790   2.707663   1.096618
    25  H    2.145279   5.800730   5.397721   2.728214   1.101742
    26  H    2.175816   4.753564   5.031263   3.455547   1.097223
    27  H    4.183402   2.670329   2.714408   4.333150   5.644455
    28  H    2.212657   4.267116   4.289587   2.777424   3.464310
                   11         12         13         14         15
    11  H    0.000000
    12  H    1.791406   0.000000
    13  H    2.868192   3.543465   0.000000
    14  H    3.830381   3.709532   1.781012   0.000000
    15  H    3.742474   4.336649   4.748961   5.972160   0.000000
    16  H    2.514303   3.766876   3.666163   5.160889   1.789093
    17  H    2.962477   3.677991   5.008079   6.204931   1.796772
    18  H    3.753409   2.541977   5.005149   5.097161   3.777791
    19  H    4.315994   3.766560   5.229862   5.709339   2.591809
    20  H    3.820522   3.261248   5.679028   6.249056   2.893950
    21  H    4.716774   3.612030   3.822592   2.643045   6.021339
    22  H    4.623708   3.499039   4.322099   3.816995   4.859893
    23  H    3.494777   2.031689   3.791208   3.205957   5.032884
    24  H    5.323843   4.981659   3.787556   3.636783   4.889619
    25  H    5.245682   4.939361   3.079999   2.314839   5.949893
    26  H    4.768530   4.991583   2.580379   2.972353   4.759221
    27  H    1.776210   1.772744   4.476211   5.171605   3.657817
    28  H    2.185165   2.147011   1.786443   1.774760   5.056585
                   16         17         18         19         20
    16  H    0.000000
    17  H    1.789883   0.000000
    18  H    4.329682   3.710735   0.000000
    19  H    3.789494   3.261647   1.794005   0.000000
    20  H    3.701257   2.461653   1.787437   1.788984   0.000000
    21  H    5.923381   6.380295   3.753690   4.624191   5.395285
    22  H    5.249540   5.419627   2.483101   3.028703   4.089479
    23  H    4.927409   5.010639   2.295924   3.597631   3.885978
    24  H    5.194624   6.034603   4.444603   4.071396   5.539889
    25  H    5.735863   6.776255   5.210534   5.330552   6.478028
    26  H    4.531386   5.823246   5.220247   4.846179   6.041775
    27  H    3.079113   2.371192   2.970948   3.746915   2.591171
    28  H    4.072237   4.848553   4.127011   4.946066   5.021179
                   21         22         23         24         25
    21  H    0.000000
    22  H    1.783051   0.000000
    23  H    1.779771   1.786087   0.000000
    24  H    2.962693   2.511542   3.755599   0.000000
    25  H    2.450694   3.143958   3.715826   1.795917   0.000000
    26  H    3.710840   3.737851   4.338843   1.778569   1.793929
    27  H    5.250556   4.740562   3.616939   6.042447   6.306037
    28  H    3.117706   3.792902   2.590851   4.340639   3.635569
                   26         27         28
    26  H    0.000000
    27  H    5.932810   0.000000
    28  H    3.792825   3.503847   0.000000
 Stoichiometry    C8H18NO(2)
 Framework group  C1[X(C8H18NO)]
 Deg. of freedom    78
 Full point group                 C1      NOp   1
 Largest Abelian subgroup         C1      NOp   1
 Largest concise Abelian subgroup C1      NOp   1
                         Standard orientation:                         
 ---------------------------------------------------------------------
 Center     Atomic      Atomic             Coordinates (Angstroms)
 Number     Number       Type             X           Y           Z
 ---------------------------------------------------------------------
      1          8           0       -0.025283   -1.833393   -0.153114
      2          7           0        0.005513   -0.544084   -0.232569
      3          6           0       -1.339844    0.113190   -0.012946
      4          6           0       -1.373612    1.607703   -0.340292
      5          6           0        1.619114    1.178005   -1.094532
      6          6           0        1.348216    0.115425   -0.016997
      7          6           0       -2.325485   -0.596119   -0.952589
      8          6           0       -1.764225   -0.123900    1.447632
      9          6           0        1.437229    0.711374    1.395962
     10          6           0        2.418924   -0.974122   -0.150313
     11          1           0       -1.125495    1.790983   -1.394462
     12          1           0       -0.714797    2.208858    0.298418
     13          1           0        1.454170    0.750884   -2.094496
     14          1           0        2.674375    1.482719   -1.023272
     15          1           0       -2.392627   -1.662224   -0.704643
     16          1           0       -1.994058   -0.490434   -1.996504
     17          1           0       -3.315478   -0.126980   -0.845230
     18          1           0       -1.207601    0.525402    2.138192
     19          1           0       -1.576674   -1.176437    1.706934
     20          1           0       -2.840081    0.081730    1.561048
     21          1           0        2.464264    1.067997    1.578563
     22          1           0        1.205209   -0.061207    2.143318
     23          1           0        0.754006    1.559239    1.542754
     24          1           0        2.310250   -1.735111    0.631772
     25          1           0        3.405348   -0.491619   -0.060907
     26          1           0        2.343936   -1.469405   -1.126515
     27          1           0       -2.404868    1.956811   -0.173550
     28          1           0        1.001887    2.075188   -0.984074
 ---------------------------------------------------------------------
 Rotational constants (GHZ):           1.8578407           1.0357103           0.9413329
 Leave Link  202 at Tue Jan  7 16:43:08 2025, MaxMem=  4026531840 cpu:               0.1 elap:               0.2
 (Enter /usr/local/intel/g16/l301.exe)
 Standard basis: def2TZVP (5D, 7F)
 Ernie: Thresh=  0.10000D-02 Tol=  0.10000D-05 Strict=F.
 There are   468 symmetry adapted cartesian basis functions of A   symmetry.
 There are   418 symmetry adapted basis functions of A   symmetry.
   418 basis functions,   654 primitive gaussians,   468 cartesian basis functions
    41 alpha electrons       40 beta electrons
       nuclear repulsion energy       620.8624335573 Hartrees.
 IExCor= 4336 DFT=T Ex+Corr=M062X ExCW=0 ScaHFX=  0.540000
 ScaDFX=  1.000000  1.000000  1.000000  1.000000 ScalE2=  1.000000  1.000000
 IRadAn=      5 IRanWt=     -1 IRanGd=            0 ICorTp=0 IEmpDi=  4
 NAtoms=   28 NActive=   28 NUniq=   28 SFac= 1.00D+00 NAtFMM=   60 NAOKFM=F Big=F
 Integral buffers will be    131072 words long.
 Raffenetti 2 integral format.
 Two-electron integral symmetry is turned on.
 Leave Link  301 at Tue Jan  7 16:43:09 2025, MaxMem=  4026531840 cpu:               1.0 elap:               0.3
 (Enter /usr/local/intel/g16/l302.exe)
 NPDir=0 NMtPBC=     1 NCelOv=     1 NCel=       1 NClECP=     1 NCelD=      1
         NCelK=      1 NCelE2=     1 NClLst=     1 CellRange=     0.0.
 One-electron integrals computed using PRISM.
 One-electron integral symmetry used in STVInt
   1 Symmetry operations used in ECPInt.
 ECPInt:  NShTT=   16653 NPrTT=   47860 LenC2=   16330 LenP2D=   37165.
 LDataN:  DoStor=T MaxTD1= 6 Len=  172
 NBasis=   418 RedAO= T EigKep=  1.30D-04  NBF=   418
 NBsUse=   418 1.00D-06 EigRej= -1.00D+00 NBFU=   418
 Precomputing XC quadrature grid using
 IXCGrd= 4 IRadAn=           5 IRanWt=          -1 IRanGd=           0 AccXCQ= 0.00D+00.
 Generated NRdTot=       0 NPtTot=           0 NUsed=           0 NTot=          32
 NSgBfM=   466   466   466   466   466 MxSgAt=    28 MxSgA2=    28.
 Leave Link  302 at Tue Jan  7 16:43:10 2025, MaxMem=  4026531840 cpu:              10.3 elap:               0.5
 (Enter /usr/local/intel/g16/l303.exe)
 DipDrv:  MaxL=1.
 Leave Link  303 at Tue Jan  7 16:43:10 2025, MaxMem=  4026531840 cpu:               1.6 elap:               0.1
 (Enter /usr/local/intel/g16/l401.exe)
 ExpMin= 9.52D-02 ExpMax= 2.70D+04 ExpMxC= 9.22D+02 IAcc=3 IRadAn=         5 AccDes= 0.00D+00
 Harris functional with IExCor= 1009 and IRadAn=       5 diagonalized for initial guess.
 HarFok:  IExCor= 1009 AccDes= 0.00D+00 IRadAn=         5 IDoV= 1 UseB2=F ITyADJ=14
 ICtDFT=  3500011 ScaDFX=  1.000000  1.000000  1.000000  1.000000
 FoFCou: FMM=F IPFlag=           0 FMFlag=      100000 FMFlg1=           0
         NFxFlg=           0 DoJE=T BraDBF=F KetDBF=T FulRan=T
         wScrn=  0.000000 ICntrl=       500 IOpCl=  0 I1Cent=   200000004 NGrid=           0
         NMat0=    1 NMatS0=      1 NMatT0=    0 NMatD0=    1 NMtDS0=    0 NMtDT0=    0
 Petite list used in FoFCou.
 Harris En= -445.433335707371    
 JPrj=0 DoOrth=F DoCkMO=F.
 Initial guess <Sx>= 0.0000 <Sy>= 0.0000 <Sz>= 0.5000 <S**2>= 0.7500 S= 0.5000
 Leave Link  401 at Tue Jan  7 16:43:12 2025, MaxMem=  4026531840 cpu:              39.7 elap:               2.0
 (Enter /usr/local/intel/g16/l502.exe)
 Integral symmetry usage will be decided dynamically.
 UHF open shell SCF:
 Using DIIS extrapolation, IDIIS=  1040.
 NGot=  4026531840 LenX=  4026079346 LenY=  4025859854
 Requested convergence on RMS density matrix=1.00D-08 within 128 cycles.
 Requested convergence on MAX density matrix=1.00D-06.
 Requested convergence on             energy=1.00D-06.
 No special actions if energy rises.
 Fock matrices will be formed incrementally for  20 cycles.
 Integral accuracy reduced to 1.0D-05 until final iterations.

 Cycle   1  Pass 0  IDiag  1:
 FoFJK:  IHMeth= 1 ICntrl=       0 DoSepK=F KAlg= 0 I1Cent=           0 FoldK=F
 IRaf= 950000000 NMat=       1 IRICut=       1 DoRegI=T DoRafI=F ISym2E= 0 IDoP0=0 IntGTp=1.
 FoFCou: FMM=F IPFlag=           0 FMFlag=      100000 FMFlg1=           0
         NFxFlg=           0 DoJE=F BraDBF=F KetDBF=F FulRan=T
         wScrn=  0.000000 ICntrl=         0 IOpCl=  1 I1Cent=           0 NGrid=           0
         NMat0=    1 NMatS0=      1 NMatT0=    0 NMatD0=    1 NMtDS0=    0 NMtDT0=    0
 Symmetry not used in FoFCou.
 E= -445.116543725829    
 DIIS: error= 3.47D-02 at cycle   1 NSaved=   1.
 NSaved= 1 IEnMin= 1 EnMin= -445.116543725829     IErMin= 1 ErrMin= 3.47D-02
 ErrMax= 3.47D-02  0.00D+00 EMaxC= 1.00D-01 BMatC= 2.01D+00 BMatP= 2.01D+00
 IDIUse=3 WtCom= 6.53D-01 WtEn= 3.47D-01
 Coeff-Com:  0.100D+01
 Coeff-En:   0.100D+01
 Coeff:      0.100D+01
 Gap=     0.329 Goal=   None    Shift=    0.000
 Gap=     0.230 Goal=   None    Shift=    0.000
 GapD=    0.230 DampG=1.000 DampE=0.500 DampFc=0.5000 IDamp=-1.
 Damping current iteration by 5.00D-01
 RMSDP=2.57D-03 MaxDP=1.06D-01              OVMax= 1.68D-01

 Cycle   2  Pass 0  IDiag  1:
 RMSU=  1.28D-03    CP:  9.79D-01
 E= -445.333505480621     Delta-E=       -0.216961754792 Rises=F Damp=T
 DIIS: error= 5.82D-03 at cycle   2 NSaved=   2.
 NSaved= 2 IEnMin= 2 EnMin= -445.333505480621     IErMin= 2 ErrMin= 5.82D-03
 ErrMax= 5.82D-03  0.00D+00 EMaxC= 1.00D-01 BMatC= 1.32D-01 BMatP= 2.01D+00
 IDIUse=3 WtCom= 9.42D-01 WtEn= 5.82D-02
 Coeff-Com: -0.380D-01 0.104D+01
 Coeff-En:   0.000D+00 0.100D+01
 Coeff:     -0.358D-01 0.104D+01
 Gap=     0.330 Goal=   None    Shift=    0.000
 Gap=     0.319 Goal=   None    Shift=    0.000
 RMSDP=7.22D-04 MaxDP=2.50D-02 DE=-2.17D-01 OVMax= 1.22D-01

 Cycle   3  Pass 0  IDiag  1:
 RMSU=  7.05D-04    CP:  9.76D-01  1.12D+00
 E= -445.537175730715     Delta-E=       -0.203670250094 Rises=F Damp=F
 DIIS: error= 6.43D-03 at cycle   3 NSaved=   3.
 NSaved= 3 IEnMin= 3 EnMin= -445.537175730715     IErMin= 2 ErrMin= 5.82D-03
 ErrMax= 6.43D-03  0.00D+00 EMaxC= 1.00D-01 BMatC= 7.15D-02 BMatP= 1.32D-01
 IDIUse=3 WtCom= 9.36D-01 WtEn= 6.43D-02
 Coeff-Com: -0.594D-01 0.445D+00 0.614D+00
 Coeff-En:   0.000D+00 0.000D+00 0.100D+01
 Coeff:     -0.555D-01 0.417D+00 0.639D+00
 Gap=     0.320 Goal=   None    Shift=    0.000
 Gap=     0.296 Goal=   None    Shift=    0.000
 RMSDP=3.36D-04 MaxDP=2.28D-02 DE=-2.04D-01 OVMax= 7.04D-02

 Cycle   4  Pass 0  IDiag  1:
 RMSU=  3.21D-04    CP:  9.79D-01  1.16D+00  8.87D-01
 E= -445.546114557988     Delta-E=       -0.008938827273 Rises=F Damp=F
 DIIS: error= 3.95D-03 at cycle   4 NSaved=   4.
 NSaved= 4 IEnMin= 4 EnMin= -445.546114557988     IErMin= 4 ErrMin= 3.95D-03
 ErrMax= 3.95D-03  0.00D+00 EMaxC= 1.00D-01 BMatC= 2.37D-02 BMatP= 7.15D-02
 IDIUse=3 WtCom= 9.61D-01 WtEn= 3.95D-02
 Coeff-Com: -0.163D-01 0.499D-01 0.378D+00 0.588D+00
 Coeff-En:   0.000D+00 0.000D+00 0.262D+00 0.738D+00
 Coeff:     -0.156D-01 0.479D-01 0.374D+00 0.594D+00
 Gap=     0.314 Goal=   None    Shift=    0.000
 Gap=     0.306 Goal=   None    Shift=    0.000
 RMSDP=1.62D-04 MaxDP=7.13D-03 DE=-8.94D-03 OVMax= 1.66D-02

 Cycle   5  Pass 0  IDiag  1:
 RMSU=  1.01D-04    CP:  9.76D-01  1.15D+00  9.59D-01  6.50D-01
 E= -445.550389958209     Delta-E=       -0.004275400222 Rises=F Damp=F
 DIIS: error= 6.32D-04 at cycle   5 NSaved=   5.
 NSaved= 5 IEnMin= 5 EnMin= -445.550389958209     IErMin= 5 ErrMin= 6.32D-04
 ErrMax= 6.32D-04  0.00D+00 EMaxC= 1.00D-01 BMatC= 4.40D-04 BMatP= 2.37D-02
 IDIUse=3 WtCom= 9.94D-01 WtEn= 6.32D-03
 Coeff-Com: -0.273D-02 0.116D-02 0.126D+00 0.220D+00 0.656D+00
 Coeff-En:   0.000D+00 0.000D+00 0.000D+00 0.000D+00 0.100D+01
 Coeff:     -0.271D-02 0.115D-02 0.125D+00 0.218D+00 0.658D+00
 Gap=     0.312 Goal=   None    Shift=    0.000
 Gap=     0.306 Goal=   None    Shift=    0.000
 RMSDP=3.19D-05 MaxDP=2.20D-03 DE=-4.28D-03 OVMax= 7.49D-03

 Cycle   6  Pass 0  IDiag  1:
 RMSU=  2.84D-05    CP:  9.76D-01  1.15D+00  9.71D-01  6.82D-01  9.51D-01
 E= -445.550507338405     Delta-E=       -0.000117380196 Rises=F Damp=F
 DIIS: error= 3.29D-04 at cycle   6 NSaved=   6.
 NSaved= 6 IEnMin= 6 EnMin= -445.550507338405     IErMin= 6 ErrMin= 3.29D-04
 ErrMax= 3.29D-04  0.00D+00 EMaxC= 1.00D-01 BMatC= 1.04D-04 BMatP= 4.40D-04
 IDIUse=3 WtCom= 9.97D-01 WtEn= 3.29D-03
 Coeff-Com:  0.325D-02-0.108D-01-0.260D-01-0.556D-01 0.224D+00 0.866D+00
 Coeff-En:   0.000D+00 0.000D+00 0.000D+00 0.000D+00 0.000D+00 0.100D+01
 Coeff:      0.323D-02-0.108D-01-0.259D-01-0.554D-01 0.223D+00 0.866D+00
 Gap=     0.313 Goal=   None    Shift=    0.000
 Gap=     0.307 Goal=   None    Shift=    0.000
 RMSDP=2.81D-05 MaxDP=1.81D-03 DE=-1.17D-04 OVMax= 3.92D-03

 Cycle   7  Pass 0  IDiag  1:
 RMSU=  1.40D-05    CP:  9.76D-01  1.14D+00  9.82D-01  6.80D-01  1.15D+00
                    CP:  1.33D+00
 E= -445.550547076690     Delta-E=       -0.000039738286 Rises=F Damp=F
 DIIS: error= 1.10D-04 at cycle   7 NSaved=   7.
 NSaved= 7 IEnMin= 7 EnMin= -445.550547076690     IErMin= 7 ErrMin= 1.10D-04
 ErrMax= 1.10D-04  0.00D+00 EMaxC= 1.00D-01 BMatC= 1.51D-05 BMatP= 1.04D-04
 IDIUse=3 WtCom= 9.99D-01 WtEn= 1.10D-03
 Coeff-Com:  0.107D-02-0.158D-02-0.222D-01-0.567D-01-0.100D+00 0.436D-01
 Coeff-Com:  0.114D+01
 Coeff-En:   0.000D+00 0.000D+00 0.000D+00 0.000D+00 0.000D+00 0.000D+00
 Coeff-En:   0.100D+01
 Coeff:      0.107D-02-0.158D-02-0.222D-01-0.566D-01-0.100D+00 0.435D-01
 Coeff:      0.114D+01
 Gap=     0.313 Goal=   None    Shift=    0.000
 Gap=     0.307 Goal=   None    Shift=    0.000
 RMSDP=1.70D-05 MaxDP=9.71D-04 DE=-3.97D-05 OVMax= 3.39D-03

 Cycle   8  Pass 0  IDiag  1:
 RMSU=  5.65D-06    CP:  9.75D-01  1.14D+00  9.85D-01  6.71D-01  1.26D+00
                    CP:  1.63D+00  1.45D+00
 E= -445.550556925309     Delta-E=       -0.000009848619 Rises=F Damp=F
 DIIS: error= 4.55D-05 at cycle   8 NSaved=   8.
 NSaved= 8 IEnMin= 8 EnMin= -445.550556925309     IErMin= 8 ErrMin= 4.55D-05
 ErrMax= 4.55D-05  0.00D+00 EMaxC= 1.00D-01 BMatC= 2.08D-06 BMatP= 1.51D-05
 IDIUse=1 WtCom= 1.00D+00 WtEn= 0.00D+00
 Coeff-Com: -0.122D-03 0.901D-03 0.403D-03-0.599D-02-0.380D-01-0.937D-01
 Coeff-Com:  0.190D+00 0.947D+00
 Coeff:     -0.122D-03 0.901D-03 0.403D-03-0.599D-02-0.380D-01-0.937D-01
 Coeff:      0.190D+00 0.947D+00
 Gap=     0.314 Goal=   None    Shift=    0.000
 Gap=     0.307 Goal=   None    Shift=    0.000
 RMSDP=5.77D-06 MaxDP=2.98D-04 DE=-9.85D-06 OVMax= 9.52D-04

 Initial convergence to 1.0D-05 achieved.  Increase integral accuracy.
 Cycle   9  Pass 1  IDiag  1:
 E= -445.550569825370     Delta-E=       -0.000012900060 Rises=F Damp=F
 DIIS: error= 7.31D-05 at cycle   1 NSaved=   1.
 NSaved= 1 IEnMin= 1 EnMin= -445.550569825370     IErMin= 1 ErrMin= 7.31D-05
 ErrMax= 7.31D-05  0.00D+00 EMaxC= 1.00D-01 BMatC= 6.11D-06 BMatP= 6.11D-06
 IDIUse=1 WtCom= 1.00D+00 WtEn= 0.00D+00
 Coeff-Com:  0.100D+01
 Coeff:      0.100D+01
 Gap=     0.313 Goal=   None    Shift=    0.000
 Gap=     0.307 Goal=   None    Shift=    0.000
 RMSDP=5.77D-06 MaxDP=2.98D-04 DE=-1.29D-05 OVMax= 2.08D-04

 Cycle  10  Pass 1  IDiag  1:
 RMSU=  2.30D-05    CP:  1.00D+00
 E= -445.550570592296     Delta-E=       -0.000000766926 Rises=F Damp=F
 DIIS: error= 1.71D-05 at cycle   2 NSaved=   2.
 NSaved= 2 IEnMin= 2 EnMin= -445.550570592296     IErMin= 2 ErrMin= 1.71D-05
 ErrMax= 1.71D-05  0.00D+00 EMaxC= 1.00D-01 BMatC= 4.25D-07 BMatP= 6.11D-06
 IDIUse=1 WtCom= 1.00D+00 WtEn= 0.00D+00
 Coeff-Com:  0.845D-01 0.916D+00
 Coeff:      0.845D-01 0.916D+00
 Gap=     0.314 Goal=   None    Shift=    0.000
 Gap=     0.307 Goal=   None    Shift=    0.000
 RMSDP=1.57D-06 MaxDP=9.52D-05 DE=-7.67D-07 OVMax= 2.82D-04

 Cycle  11  Pass 1  IDiag  1:
 RMSU=  1.44D-06    CP:  1.00D+00  1.03D+00
 E= -445.550570611807     Delta-E=       -0.000000019511 Rises=F Damp=F
 DIIS: error= 1.77D-05 at cycle   3 NSaved=   3.
 NSaved= 3 IEnMin= 3 EnMin= -445.550570611807     IErMin= 2 ErrMin= 1.71D-05
 ErrMax= 1.77D-05  0.00D+00 EMaxC= 1.00D-01 BMatC= 6.17D-07 BMatP= 4.25D-07
 IDIUse=1 WtCom= 1.00D+00 WtEn= 0.00D+00
 Coeff-Com: -0.126D-01 0.554D+00 0.458D+00
 Coeff:     -0.126D-01 0.554D+00 0.458D+00
 Gap=     0.313 Goal=   None    Shift=    0.000
 Gap=     0.307 Goal=   None    Shift=    0.000
 RMSDP=8.75D-07 MaxDP=4.37D-05 DE=-1.95D-08 OVMax= 7.31D-05

 Cycle  12  Pass 1  IDiag  1:
 RMSU=  6.95D-07    CP:  1.00D+00  1.04D+00  6.75D-01
 E= -445.550570734889     Delta-E=       -0.000000123082 Rises=F Damp=F
 DIIS: error= 5.98D-06 at cycle   4 NSaved=   4.
 NSaved= 4 IEnMin= 4 EnMin= -445.550570734889     IErMin= 4 ErrMin= 5.98D-06
 ErrMax= 5.98D-06  0.00D+00 EMaxC= 1.00D-01 BMatC= 2.07D-08 BMatP= 4.25D-07
 IDIUse=1 WtCom= 1.00D+00 WtEn= 0.00D+00
 Coeff-Com: -0.105D-01 0.157D+00 0.133D+00 0.721D+00
 Coeff:     -0.105D-01 0.157D+00 0.133D+00 0.721D+00
 Gap=     0.313 Goal=   None    Shift=    0.000
 Gap=     0.307 Goal=   None    Shift=    0.000
 RMSDP=2.79D-07 MaxDP=2.50D-05 DE=-1.23D-07 OVMax= 8.41D-05

 Cycle  13  Pass 1  IDiag  1:
 RMSU=  2.30D-07    CP:  1.00D+00  1.04D+00  6.86D-01  1.22D+00
 E= -445.550570744348     Delta-E=       -0.000000009459 Rises=F Damp=F
 DIIS: error= 3.71D-06 at cycle   5 NSaved=   5.
 NSaved= 5 IEnMin= 5 EnMin= -445.550570744348     IErMin= 5 ErrMin= 3.71D-06
 ErrMax= 3.71D-06  0.00D+00 EMaxC= 1.00D-01 BMatC= 1.43D-08 BMatP= 2.07D-08
 IDIUse=1 WtCom= 1.00D+00 WtEn= 0.00D+00
 Coeff-Com:  0.659D-02-0.310D+00-0.329D+00 0.315D+00 0.132D+01
 Coeff:      0.659D-02-0.310D+00-0.329D+00 0.315D+00 0.132D+01
 Gap=     0.313 Goal=   None    Shift=    0.000
 Gap=     0.307 Goal=   None    Shift=    0.000
 RMSDP=5.28D-07 MaxDP=2.55D-05 DE=-9.46D-09 OVMax= 9.32D-05

 Cycle  14  Pass 1  IDiag  1:
 RMSU=  1.83D-07    CP:  1.00D+00  1.04D+00  7.71D-01  1.89D+00  1.34D+00
 E= -445.550570752505     Delta-E=       -0.000000008157 Rises=F Damp=F
 DIIS: error= 4.13D-07 at cycle   6 NSaved=   6.
 NSaved= 6 IEnMin= 6 EnMin= -445.550570752505     IErMin= 6 ErrMin= 4.13D-07
 ErrMax= 4.13D-07  0.00D+00 EMaxC= 1.00D-01 BMatC= 3.20D-10 BMatP= 1.43D-08
 IDIUse=1 WtCom= 1.00D+00 WtEn= 0.00D+00
 Coeff-Com:  0.179D-02-0.609D-01-0.691D-01 0.312D-01 0.189D+00 0.908D+00
 Coeff:      0.179D-02-0.609D-01-0.691D-01 0.312D-01 0.189D+00 0.908D+00
 Gap=     0.313 Goal=   None    Shift=    0.000
 Gap=     0.307 Goal=   None    Shift=    0.000
 RMSDP=6.69D-08 MaxDP=4.13D-06 DE=-8.16D-09 OVMax= 1.44D-05

 Cycle  15  Pass 1  IDiag  1:
 RMSU=  3.04D-08    CP:  1.00D+00  1.04D+00  7.71D-01  1.96D+00  1.41D+00
                    CP:  1.19D+00
 E= -445.550570752695     Delta-E=       -0.000000000189 Rises=F Damp=F
 DIIS: error= 2.38D-07 at cycle   7 NSaved=   7.
 NSaved= 7 IEnMin= 7 EnMin= -445.550570752695     IErMin= 7 ErrMin= 2.38D-07
 ErrMax= 2.38D-07  0.00D+00 EMaxC= 1.00D-01 BMatC= 1.03D-10 BMatP= 3.20D-10
 IDIUse=1 WtCom= 1.00D+00 WtEn= 0.00D+00
 Coeff-Com: -0.266D-03 0.219D-01 0.202D-01-0.324D-01-0.130D+00 0.409D+00
 Coeff-Com:  0.711D+00
 Coeff:     -0.266D-03 0.219D-01 0.202D-01-0.324D-01-0.130D+00 0.409D+00
 Coeff:      0.711D+00
 Gap=     0.313 Goal=   None    Shift=    0.000
 Gap=     0.307 Goal=   None    Shift=    0.000
 RMSDP=2.84D-08 MaxDP=1.50D-06 DE=-1.89D-10 OVMax= 5.29D-06

 Cycle  16  Pass 1  IDiag  1:
 RMSU=  1.56D-08    CP:  1.00D+00  1.04D+00  7.73D-01  1.97D+00  1.40D+00
                    CP:  1.30D+00  1.05D+00
 E= -445.550570752735     Delta-E=       -0.000000000041 Rises=F Damp=F
 DIIS: error= 1.54D-07 at cycle   8 NSaved=   8.
 NSaved= 8 IEnMin= 8 EnMin= -445.550570752735     IErMin= 8 ErrMin= 1.54D-07
 ErrMax= 1.54D-07  0.00D+00 EMaxC= 1.00D-01 BMatC= 7.57D-12 BMatP= 1.03D-10
 IDIUse=1 WtCom= 1.00D+00 WtEn= 0.00D+00
 Coeff-Com: -0.218D-03 0.930D-02 0.964D-02-0.657D-02-0.364D-01-0.521D-01
 Coeff-Com:  0.858D-01 0.991D+00
 Coeff:     -0.218D-03 0.930D-02 0.964D-02-0.657D-02-0.364D-01-0.521D-01
 Coeff:      0.858D-01 0.991D+00
 Gap=     0.313 Goal=   None    Shift=    0.000
 Gap=     0.307 Goal=   None    Shift=    0.000
 RMSDP=1.05D-08 MaxDP=8.40D-07 DE=-4.07D-11 OVMax= 4.17D-06

 Cycle  17  Pass 1  IDiag  1:
 RMSU=  6.00D-09    CP:  1.00D+00  1.04D+00  7.74D-01  1.97D+00  1.40D+00
                    CP:  1.33D+00  1.18D+00  1.39D+00
 E= -445.550570752748     Delta-E=       -0.000000000013 Rises=F Damp=F
 DIIS: error= 1.03D-07 at cycle   9 NSaved=   9.
 NSaved= 9 IEnMin= 9 EnMin= -445.550570752748     IErMin= 9 ErrMin= 1.03D-07
 ErrMax= 1.03D-07  0.00D+00 EMaxC= 1.00D-01 BMatC= 2.53D-12 BMatP= 7.57D-12
 IDIUse=1 WtCom= 1.00D+00 WtEn= 0.00D+00
 Coeff-Com:  0.555D-04-0.483D-02-0.447D-02 0.753D-02 0.290D-01-0.979D-01
 Coeff-Com: -0.165D+00 0.424D-01 0.119D+01
 Coeff:      0.555D-04-0.483D-02-0.447D-02 0.753D-02 0.290D-01-0.979D-01
 Coeff:     -0.165D+00 0.424D-01 0.119D+01
 Gap=     0.313 Goal=   None    Shift=    0.000
 Gap=     0.307 Goal=   None    Shift=    0.000
 RMSDP=8.24D-09 MaxDP=7.84D-07 DE=-1.27D-11 OVMax= 3.89D-06

 SCF Done:  E(UM062X) =  -445.550570753     A.U. after   17 cycles
            NFock= 17  Conv=0.82D-08     -V/T= 2.0059
 <Sx>= 0.0000 <Sy>= 0.0000 <Sz>= 0.5000 <S**2>= 0.7558 S= 0.5029
 <L.S>=  0.00000000000    
 KE= 4.429217360215D+02 PE=-2.277157259642D+03 EE= 7.678225193100D+02
 Annihilation of the first spin contaminant:
 S**2 before annihilation     0.7558,   after     0.7500
 Leave Link  502 at Tue Jan  7 16:46:53 2025, MaxMem=  4026531840 cpu:            4412.1 elap:             220.8
 (Enter /usr/local/intel/g16/l601.exe)
 Copying SCF densities to generalized density rwf, IOpCl= 1 IROHF=0.

 **********************************************************************

            Population analysis using the SCF Density.

 **********************************************************************

 Orbital symmetries:
 Alpha Orbitals:
       Occupied  (A) (A) (A) (A) (A) (A) (A) (A) (A) (A) (A) (A)
                 (A) (A) (A) (A) (A) (A) (A) (A) (A) (A) (A) (A)
                 (A) (A) (A) (A) (A) (A) (A) (A) (A) (A) (A) (A)
                 (A) (A) (A) (A) (A)
       Virtual   (A) (A) (A) (A) (A) (A) (A) (A) (A) (A) (A) (A)
                 (A) (A) (A) (A) (A) (A) (A) (A) (A) (A) (A) (A)
                 (A) (A) (A) (A) (A) (A) (A) (A) (A) (A) (A) (A)
                 (A) (A) (A) (A) (A) (A) (A) (A) (A) (A) (A) (A)
                 (A) (A) (A) (A) (A) (A) (A) (A) (A) (A) (A) (A)
                 (A) (A) (A) (A) (A) (A) (A) (A) (A) (A) (A) (A)
                 (A) (A) (A) (A) (A) (A) (A) (A) (A) (A) (A) (A)
                 (A) (A) (A) (A) (A) (A) (A) (A) (A) (A) (A) (A)
                 (A) (A) (A) (A) (A) (A) (A) (A) (A) (A) (A) (A)
                 (A) (A) (A) (A) (A) (A) (A) (A) (A) (A) (A) (A)
                 (A) (A) (A) (A) (A) (A) (A) (A) (A) (A) (A) (A)
                 (A) (A) (A) (A) (A) (A) (A) (A) (A) (A) (A) (A)
                 (A) (A) (A) (A) (A) (A) (A) (A) (A) (A) (A) (A)
                 (A) (A) (A) (A) (A) (A) (A) (A) (A) (A) (A) (A)
                 (A) (A) (A) (A) (A) (A) (A) (A) (A) (A) (A) (A)
                 (A) (A) (A) (A) (A) (A) (A) (A) (A) (A) (A) (A)
                 (A) (A) (A) (A) (A) (A) (A) (A) (A) (A) (A) (A)
                 (A) (A) (A) (A) (A) (A) (A) (A) (A) (A) (A) (A)
                 (A) (A) (A) (A) (A) (A) (A) (A) (A) (A) (A) (A)
                 (A) (A) (A) (A) (A) (A) (A) (A) (A) (A) (A) (A)
                 (A) (A) (A) (A) (A) (A) (A) (A) (A) (A) (A) (A)
                 (A) (A) (A) (A) (A) (A) (A) (A) (A) (A) (A) (A)
                 (A) (A) (A) (A) (A) (A) (A) (A) (A) (A) (A) (A)
                 (A) (A) (A) (A) (A) (A) (A) (A) (A) (A) (A) (A)
                 (A) (A) (A) (A) (A) (A) (A) (A) (A) (A) (A) (A)
                 (A) (A) (A) (A) (A) (A) (A) (A) (A) (A) (A) (A)
                 (A) (A) (A) (A) (A) (A) (A) (A) (A) (A) (A) (A)
                 (A) (A) (A) (A) (A) (A) (A) (A) (A) (A) (A) (A)
                 (A) (A) (A) (A) (A) (A) (A) (A) (A) (A) (A) (A)
                 (A) (A) (A) (A) (A) (A) (A) (A) (A) (A) (A) (A)
                 (A) (A) (A) (A) (A) (A) (A) (A) (A) (A) (A) (A)
                 (A) (A) (A) (A) (A)
 Beta  Orbitals:
       Occupied  (A) (A) (A) (A) (A) (A) (A) (A) (A) (A) (A) (A)
                 (A) (A) (A) (A) (A) (A) (A) (A) (A) (A) (A) (A)
                 (A) (A) (A) (A) (A) (A) (A) (A) (A) (A) (A) (A)
                 (A) (A) (A) (A)
       Virtual   (A) (A) (A) (A) (A) (A) (A) (A) (A) (A) (A) (A)
                 (A) (A) (A) (A) (A) (A) (A) (A) (A) (A) (A) (A)
                 (A) (A) (A) (A) (A) (A) (A) (A) (A) (A) (A) (A)
                 (A) (A) (A) (A) (A) (A) (A) (A) (A) (A) (A) (A)
                 (A) (A) (A) (A) (A) (A) (A) (A) (A) (A) (A) (A)
                 (A) (A) (A) (A) (A) (A) (A) (A) (A) (A) (A) (A)
                 (A) (A) (A) (A) (A) (A) (A) (A) (A) (A) (A) (A)
                 (A) (A) (A) (A) (A) (A) (A) (A) (A) (A) (A) (A)
                 (A) (A) (A) (A) (A) (A) (A) (A) (A) (A) (A) (A)
                 (A) (A) (A) (A) (A) (A) (A) (A) (A) (A) (A) (A)
                 (A) (A) (A) (A) (A) (A) (A) (A) (A) (A) (A) (A)
                 (A) (A) (A) (A) (A) (A) (A) (A) (A) (A) (A) (A)
                 (A) (A) (A) (A) (A) (A) (A) (A) (A) (A) (A) (A)
                 (A) (A) (A) (A) (A) (A) (A) (A) (A) (A) (A) (A)
                 (A) (A) (A) (A) (A) (A) (A) (A) (A) (A) (A) (A)
                 (A) (A) (A) (A) (A) (A) (A) (A) (A) (A) (A) (A)
                 (A) (A) (A) (A) (A) (A) (A) (A) (A) (A) (A) (A)
                 (A) (A) (A) (A) (A) (A) (A) (A) (A) (A) (A) (A)
                 (A) (A) (A) (A) (A) (A) (A) (A) (A) (A) (A) (A)
                 (A) (A) (A) (A) (A) (A) (A) (A) (A) (A) (A) (A)
                 (A) (A) (A) (A) (A) (A) (A) (A) (A) (A) (A) (A)
                 (A) (A) (A) (A) (A) (A) (A) (A) (A) (A) (A) (A)
                 (A) (A) (A) (A) (A) (A) (A) (A) (A) (A) (A) (A)
                 (A) (A) (A) (A) (A) (A) (A) (A) (A) (A) (A) (A)
                 (A) (A) (A) (A) (A) (A) (A) (A) (A) (A) (A) (A)
                 (A) (A) (A) (A) (A) (A) (A) (A) (A) (A) (A) (A)
                 (A) (A) (A) (A) (A) (A) (A) (A) (A) (A) (A) (A)
                 (A) (A) (A) (A) (A) (A) (A) (A) (A) (A) (A) (A)
                 (A) (A) (A) (A) (A) (A) (A) (A) (A) (A) (A) (A)
                 (A) (A) (A) (A) (A) (A) (A) (A) (A) (A) (A) (A)
                 (A) (A) (A) (A) (A) (A) (A) (A) (A) (A) (A) (A)
                 (A) (A) (A) (A) (A) (A)
 The electronic state is 2-A.
 Alpha  occ. eigenvalues --  -19.61860 -14.83085 -10.59076 -10.58946 -10.53853
 Alpha  occ. eigenvalues --  -10.53673 -10.53389 -10.52853 -10.52358 -10.52325
 Alpha  occ. eigenvalues --   -1.20559  -0.95941  -0.92260  -0.81757  -0.79508
 Alpha  occ. eigenvalues --   -0.78505  -0.77772  -0.77413  -0.67505  -0.59953
 Alpha  occ. eigenvalues --   -0.56220  -0.56061  -0.55357  -0.51994  -0.50448
 Alpha  occ. eigenvalues --   -0.50436  -0.48562  -0.47104  -0.46407  -0.45510
 Alpha  occ. eigenvalues --   -0.44969  -0.44221  -0.43271  -0.42971  -0.42836
 Alpha  occ. eigenvalues --   -0.40510  -0.39786  -0.39430  -0.38373  -0.32935
 Alpha  occ. eigenvalues --   -0.25945
 Alpha virt. eigenvalues --    0.05398   0.08342   0.08897   0.09954   0.10561
 Alpha virt. eigenvalues --    0.11192   0.11792   0.13020   0.13360   0.13884
 Alpha virt. eigenvalues --    0.14547   0.15581   0.16004   0.16563   0.17679
 Alpha virt. eigenvalues --    0.18199   0.18569   0.19190   0.19448   0.19936
 Alpha virt. eigenvalues --    0.20144   0.20716   0.20883   0.21838   0.23356
 Alpha virt. eigenvalues --    0.24888   0.25772   0.26043   0.27069   0.28375
 Alpha virt. eigenvalues --    0.28985   0.29321   0.31094   0.32357   0.34239
 Alpha virt. eigenvalues --    0.34884   0.36170   0.36840   0.37615   0.38264
 Alpha virt. eigenvalues --    0.39849   0.40725   0.41607   0.42226   0.42778
 Alpha virt. eigenvalues --    0.43093   0.44334   0.45166   0.45716   0.46243
 Alpha virt. eigenvalues --    0.46483   0.48008   0.48402   0.48694   0.49108
 Alpha virt. eigenvalues --    0.49698   0.50122   0.50276   0.50709   0.50819
 Alpha virt. eigenvalues --    0.51586   0.51924   0.52616   0.52882   0.54080
 Alpha virt. eigenvalues --    0.54820   0.56731   0.57567   0.58559   0.59543
 Alpha virt. eigenvalues --    0.59618   0.61118   0.63082   0.64394   0.66608
 Alpha virt. eigenvalues --    0.67370   0.69096   0.72017   0.72600   0.73435
 Alpha virt. eigenvalues --    0.75309   0.75557   0.78491   0.81305   0.82960
 Alpha virt. eigenvalues --    0.83799   0.85466   0.86570   0.88765   0.89422
 Alpha virt. eigenvalues --    0.90679   0.92024   0.93425   0.94366   0.94826
 Alpha virt. eigenvalues --    0.96799   1.00049   1.00682   1.01418   1.04413
 Alpha virt. eigenvalues --    1.05027   1.05782   1.06217   1.08460   1.09373
 Alpha virt. eigenvalues --    1.09527   1.11216   1.13568   1.15548   1.16372
 Alpha virt. eigenvalues --    1.17398   1.18977   1.19406   1.20214   1.22722
 Alpha virt. eigenvalues --    1.23548   1.24677   1.27010   1.29313   1.31494
 Alpha virt. eigenvalues --    1.33968   1.37204   1.37487   1.39002   1.40765
 Alpha virt. eigenvalues --    1.45446   1.47324   1.51658   1.53200   1.55082
 Alpha virt. eigenvalues --    1.56796   1.56878   1.58583   1.59516   1.59851
 Alpha virt. eigenvalues --    1.61387   1.61993   1.62284   1.62687   1.63052
 Alpha virt. eigenvalues --    1.64127   1.64578   1.64947   1.66048   1.67117
 Alpha virt. eigenvalues --    1.67186   1.67912   1.68878   1.69758   1.69926
 Alpha virt. eigenvalues --    1.70773   1.71498   1.73507   1.74483   1.77807
 Alpha virt. eigenvalues --    1.78985   1.80828   1.82636   1.83379   1.87581
 Alpha virt. eigenvalues --    1.88950   1.89973   1.92447   1.93894   1.95772
 Alpha virt. eigenvalues --    1.96591   1.97453   2.00345   2.03114   2.03567
 Alpha virt. eigenvalues --    2.06183   2.07574   2.09994   2.11539   2.13026
 Alpha virt. eigenvalues --    2.14556   2.16548   2.18384   2.18455   2.19476
 Alpha virt. eigenvalues --    2.20617   2.22142   2.23482   2.26867   2.28374
 Alpha virt. eigenvalues --    2.29241   2.30337   2.31545   2.31870   2.33322
 Alpha virt. eigenvalues --    2.33733   2.34268   2.36095   2.36738   2.38238
 Alpha virt. eigenvalues --    2.38921   2.39438   2.40045   2.40509   2.41082
 Alpha virt. eigenvalues --    2.42234   2.42930   2.44707   2.45721   2.46671
 Alpha virt. eigenvalues --    2.48192   2.50014   2.50828   2.53370   2.54603
 Alpha virt. eigenvalues --    2.55089   2.56462   2.56688   2.58043   2.58816
 Alpha virt. eigenvalues --    2.59736   2.60726   2.61302   2.61775   2.62723
 Alpha virt. eigenvalues --    2.64311   2.64863   2.65822   2.67482   2.67899
 Alpha virt. eigenvalues --    2.68458   2.70232   2.72212   2.72869   2.74394
 Alpha virt. eigenvalues --    2.74716   2.77134   2.81078   2.82231   2.83020
 Alpha virt. eigenvalues --    2.84328   2.85689   2.87689   2.88895   2.90059
 Alpha virt. eigenvalues --    2.92866   2.95850   2.97674   2.99435   3.01009
 Alpha virt. eigenvalues --    3.03980   3.07509   3.10049   3.10560   3.13328
 Alpha virt. eigenvalues --    3.13925   3.15411   3.17867   3.18863   3.19505
 Alpha virt. eigenvalues --    3.21121   3.22296   3.22720   3.23910   3.24868
 Alpha virt. eigenvalues --    3.25476   3.27702   3.29579   3.31905   3.32620
 Alpha virt. eigenvalues --    3.33225   3.34847   3.36270   3.36767   3.37017
 Alpha virt. eigenvalues --    3.37262   3.37724   3.38342   3.38657   3.39764
 Alpha virt. eigenvalues --    3.40279   3.41095   3.41721   3.44007   3.44588
 Alpha virt. eigenvalues --    3.47433   3.49608   3.51284   3.52686   3.53346
 Alpha virt. eigenvalues --    3.54870   3.60107   3.61915   3.63000   3.63234
 Alpha virt. eigenvalues --    3.64954   3.65592   3.66620   3.69409   3.71361
 Alpha virt. eigenvalues --    3.73248   3.74380   3.77866   3.86634   3.90596
 Alpha virt. eigenvalues --    3.92068   3.96077   3.97512   4.01757   4.02964
 Alpha virt. eigenvalues --    4.03639   4.04169   4.04844   4.06530   4.08523
 Alpha virt. eigenvalues --    4.09127   4.10007   4.11229   4.13216   4.15042
 Alpha virt. eigenvalues --    4.16313   4.20075   4.22484   4.26263   4.27678
 Alpha virt. eigenvalues --    4.29502   4.32522   4.34079   4.36104   4.37329
 Alpha virt. eigenvalues --    4.38604   4.38985   4.39820   4.40245   4.42667
 Alpha virt. eigenvalues --    4.44857   4.45951   4.47221   4.48448   4.51552
 Alpha virt. eigenvalues --    4.61316   4.66098   4.67146   4.74002   4.75299
 Alpha virt. eigenvalues --    4.80987   4.83582   4.84361   4.87360   4.89813
 Alpha virt. eigenvalues --    4.91516   4.97955   5.03076   5.03436   5.17063
 Alpha virt. eigenvalues --    5.23145   5.26346   5.33937   5.42119   5.48693
 Alpha virt. eigenvalues --    5.55479   5.58959   5.75478   5.77993   6.18639
 Alpha virt. eigenvalues --    6.35622   6.40981   6.47197   6.84738   7.02287
 Alpha virt. eigenvalues --    7.05057   7.62143  22.47956  22.49384  22.49813
 Alpha virt. eigenvalues --   22.52510  22.54341  22.55526  22.75284  22.78421
 Alpha virt. eigenvalues --   32.94504  44.16364
  Beta  occ. eigenvalues --  -19.60771 -14.82284 -10.59103 -10.58975 -10.53853
  Beta  occ. eigenvalues --  -10.53638 -10.53367 -10.52824 -10.52346 -10.52325
  Beta  occ. eigenvalues --   -1.17553  -0.94602  -0.92104  -0.79644  -0.79336
  Beta  occ. eigenvalues --   -0.78414  -0.77638  -0.77321  -0.66971  -0.59180
  Beta  occ. eigenvalues --   -0.55873  -0.54739  -0.52825  -0.51810  -0.50377
  Beta  occ. eigenvalues --   -0.50210  -0.47341  -0.46387  -0.45864  -0.45244
  Beta  occ. eigenvalues --   -0.44905  -0.43429  -0.42945  -0.42564  -0.41847
  Beta  occ. eigenvalues --   -0.39623  -0.39368  -0.38289  -0.36503  -0.31215
  Beta virt. eigenvalues --   -0.00497   0.05431   0.08352   0.09044   0.09934
  Beta virt. eigenvalues --    0.10566   0.11177   0.11808   0.13017   0.13371
  Beta virt. eigenvalues --    0.13941   0.14517   0.15819   0.16017   0.16547
  Beta virt. eigenvalues --    0.17857   0.18272   0.18583   0.19245   0.19508
  Beta virt. eigenvalues --    0.19942   0.20160   0.20727   0.21077   0.21922
  Beta virt. eigenvalues --    0.23491   0.25077   0.25779   0.26357   0.27301
  Beta virt. eigenvalues --    0.28488   0.29148   0.29721   0.31414   0.32510
  Beta virt. eigenvalues --    0.34366   0.34940   0.36298   0.37075   0.37960
  Beta virt. eigenvalues --    0.38328   0.39869   0.40812   0.41642   0.42255
  Beta virt. eigenvalues --    0.42926   0.43309   0.44420   0.45152   0.45854
  Beta virt. eigenvalues --    0.46296   0.46483   0.48192   0.48445   0.48683
  Beta virt. eigenvalues --    0.49148   0.49749   0.50189   0.50230   0.50753
  Beta virt. eigenvalues --    0.50908   0.51651   0.51926   0.52626   0.52966
  Beta virt. eigenvalues --    0.54263   0.54958   0.56818   0.57631   0.58664
  Beta virt. eigenvalues --    0.59572   0.59870   0.61427   0.63223   0.64703
  Beta virt. eigenvalues --    0.66979   0.67998   0.69445   0.72165   0.72675
  Beta virt. eigenvalues --    0.73460   0.75434   0.75669   0.78588   0.81348
  Beta virt. eigenvalues --    0.83038   0.83865   0.85615   0.86751   0.88795
  Beta virt. eigenvalues --    0.89455   0.90728   0.92032   0.93511   0.94485
  Beta virt. eigenvalues --    0.94956   0.96863   1.00233   1.00910   1.01575
  Beta virt. eigenvalues --    1.04422   1.05283   1.05833   1.06338   1.08530
  Beta virt. eigenvalues --    1.09422   1.09716   1.11379   1.13589   1.15661
  Beta virt. eigenvalues --    1.16420   1.17586   1.19113   1.19529   1.20304
  Beta virt. eigenvalues --    1.22869   1.23783   1.24826   1.27138   1.29455
  Beta virt. eigenvalues --    1.31650   1.34065   1.37247   1.37610   1.39085
  Beta virt. eigenvalues --    1.40781   1.46304   1.47320   1.52002   1.53369
  Beta virt. eigenvalues --    1.55245   1.56898   1.57130   1.58703   1.59600
  Beta virt. eigenvalues --    1.59929   1.61505   1.62063   1.62319   1.62761
  Beta virt. eigenvalues --    1.63103   1.64193   1.64656   1.65037   1.66175
  Beta virt. eigenvalues --    1.67229   1.67248   1.68076   1.68958   1.69863
  Beta virt. eigenvalues --    1.69944   1.70859   1.71568   1.73693   1.74990
  Beta virt. eigenvalues --    1.78045   1.79123   1.81038   1.82767   1.83938
  Beta virt. eigenvalues --    1.87715   1.89007   1.90138   1.92664   1.94227
  Beta virt. eigenvalues --    1.95987   1.96880   1.97543   2.00394   2.03184
  Beta virt. eigenvalues --    2.04049   2.06283   2.07660   2.10034   2.11794
  Beta virt. eigenvalues --    2.13242   2.14728   2.16682   2.18457   2.18682
  Beta virt. eigenvalues --    2.19628   2.20713   2.22476   2.23877   2.27166
  Beta virt. eigenvalues --    2.28484   2.29290   2.30441   2.31600   2.31942
  Beta virt. eigenvalues --    2.33391   2.33820   2.34531   2.36149   2.36836
  Beta virt. eigenvalues --    2.38237   2.38990   2.39467   2.40159   2.40555
  Beta virt. eigenvalues --    2.41145   2.42259   2.42997   2.44776   2.45882
  Beta virt. eigenvalues --    2.47090   2.48297   2.50213   2.50939   2.53496
  Beta virt. eigenvalues --    2.54698   2.55153   2.56513   2.56874   2.58088
  Beta virt. eigenvalues --    2.58898   2.59779   2.60903   2.61379   2.61853
  Beta virt. eigenvalues --    2.62786   2.64412   2.65132   2.65929   2.67585
  Beta virt. eigenvalues --    2.68414   2.68559   2.71119   2.72267   2.73586
  Beta virt. eigenvalues --    2.74445   2.74896   2.77375   2.81244   2.82301
  Beta virt. eigenvalues --    2.83127   2.84396   2.85854   2.87831   2.89509
  Beta virt. eigenvalues --    2.91817   2.93360   2.95988   2.98004   3.00218
  Beta virt. eigenvalues --    3.01248   3.04374   3.07762   3.10223   3.10683
  Beta virt. eigenvalues --    3.13437   3.14030   3.15581   3.17924   3.18957
  Beta virt. eigenvalues --    3.19570   3.21182   3.22463   3.22801   3.24153
  Beta virt. eigenvalues --    3.25007   3.25627   3.27886   3.29656   3.32058
  Beta virt. eigenvalues --    3.32661   3.33284   3.34911   3.36266   3.36864
  Beta virt. eigenvalues --    3.37075   3.37375   3.37779   3.38423   3.38713
  Beta virt. eigenvalues --    3.39812   3.40313   3.41163   3.41870   3.44082
  Beta virt. eigenvalues --    3.44632   3.47522   3.49772   3.51312   3.52784
  Beta virt. eigenvalues --    3.53370   3.55112   3.60140   3.62056   3.63141
  Beta virt. eigenvalues --    3.63290   3.64993   3.65594   3.66616   3.69523
  Beta virt. eigenvalues --    3.71295   3.73500   3.74420   3.77908   3.86825
  Beta virt. eigenvalues --    3.90709   3.92287   3.96235   3.97664   4.01892
  Beta virt. eigenvalues --    4.03105   4.03734   4.04249   4.04969   4.06628
  Beta virt. eigenvalues --    4.08530   4.09181   4.10136   4.11286   4.13231
  Beta virt. eigenvalues --    4.15069   4.16446   4.20136   4.22730   4.26339
  Beta virt. eigenvalues --    4.27864   4.29725   4.32598   4.34477   4.36286
  Beta virt. eigenvalues --    4.37381   4.38695   4.39025   4.39883   4.40316
  Beta virt. eigenvalues --    4.42760   4.44902   4.46126   4.47384   4.48505
  Beta virt. eigenvalues --    4.51657   4.61502   4.66138   4.67251   4.75094
  Beta virt. eigenvalues --    4.76769   4.80964   4.84279   4.84588   4.87253
  Beta virt. eigenvalues --    4.89649   4.91961   4.99165   5.03189   5.06239
  Beta virt. eigenvalues --    5.19411   5.25238   5.28373   5.35980   5.42386
  Beta virt. eigenvalues --    5.49499   5.56265   5.59673   5.76097   5.79178
  Beta virt. eigenvalues --    6.21459   6.36279   6.47385   6.53129   6.88780
  Beta virt. eigenvalues --    7.04585   7.05415   7.62180  22.47964  22.49391
  Beta virt. eigenvalues --   22.49840  22.52522  22.54357  22.55528  22.75228
  Beta virt. eigenvalues --   22.78364  32.94647  44.16435
          Condensed to atoms (all electrons):
               1          2          3          4          5          6
     1  O    8.327343   0.136038  -0.017596   0.009645   0.004523  -0.040670
     2  N    0.136038   6.682978   0.180470  -0.057358  -0.029258   0.145096
     3  C   -0.017596   0.180470   5.412775   0.167649  -0.018190  -0.042986
     4  C    0.009645  -0.057358   0.167649   5.355366  -0.004311   0.042314
     5  C    0.004523  -0.029258  -0.018190  -0.004311   5.250840   0.250887
     6  C   -0.040670   0.145096  -0.042986   0.042314   0.250887   5.455774
     7  C   -0.018785  -0.072315   0.263119  -0.094710  -0.005402   0.001613
     8  C   -0.030530  -0.023520   0.267590  -0.096984   0.004800  -0.027883
     9  C   -0.010398  -0.061791   0.034893  -0.037565  -0.094048   0.211136
    10  C   -0.007860  -0.064539   0.004126  -0.001298  -0.111708   0.275545
    11  H    0.000034   0.003025  -0.042067   0.421028  -0.002836  -0.012170
    12  H   -0.000235  -0.006923  -0.034555   0.406451  -0.017278   0.018958
    13  H    0.000622  -0.002266   0.004186  -0.004298   0.415365  -0.042136
    14  H   -0.000473   0.008570   0.001115  -0.000386   0.409069  -0.030876
    15  H    0.009523  -0.011849  -0.022918   0.013504  -0.000011   0.000861
    16  H   -0.002004   0.000170  -0.019166  -0.015256  -0.000698   0.000770
    17  H    0.001427   0.009507  -0.035801  -0.015082   0.000107  -0.000236
    18  H    0.000791  -0.003582  -0.021596  -0.006370   0.000542  -0.006346
    19  H    0.013774  -0.014860  -0.033481   0.011977  -0.000236   0.004782
    20  H    0.000052   0.008937  -0.035249  -0.009800   0.000023   0.001086
    21  H   -0.000453   0.008784  -0.002162   0.001485  -0.006328  -0.023347
    22  H    0.003749   0.000295  -0.010191   0.002469   0.011903  -0.040039
    23  H    0.000322  -0.009759   0.018476  -0.012843  -0.009269  -0.028638
    24  H    0.002781  -0.010865   0.000058  -0.000030   0.013178  -0.015545
    25  H    0.003184   0.009645   0.000315  -0.000202  -0.014113  -0.036344
    26  H   -0.000190  -0.004167  -0.000401  -0.000031  -0.012934  -0.025982
    27  H   -0.000434   0.006985  -0.022298   0.406770   0.001717  -0.001806
    28  H   -0.000241  -0.002558  -0.008161   0.000929   0.399593  -0.024120
               7          8          9         10         11         12
     1  O   -0.018785  -0.030530  -0.010398  -0.007860   0.000034  -0.000235
     2  N   -0.072315  -0.023520  -0.061791  -0.064539   0.003025  -0.006923
     3  C    0.263119   0.267590   0.034893   0.004126  -0.042067  -0.034555
     4  C   -0.094710  -0.096984  -0.037565  -0.001298   0.421028   0.406451
     5  C   -0.005402   0.004800  -0.094048  -0.111708  -0.002836  -0.017278
     6  C    0.001613  -0.027883   0.211136   0.275545  -0.012170   0.018958
     7  C    5.261450  -0.100429   0.000301   0.001065  -0.009147   0.013646
     8  C   -0.100429   5.262546   0.001883  -0.003893   0.011658  -0.011116
     9  C    0.000301   0.001883   5.314517  -0.097819   0.003778  -0.011072
    10  C    0.001065  -0.003893  -0.097819   5.215572  -0.000707   0.000191
    11  H   -0.009147   0.011658   0.003778  -0.000707   0.499995  -0.027620
    12  H    0.013646  -0.011116  -0.011072   0.000191  -0.027620   0.535821
    13  H    0.000237  -0.000058   0.012080  -0.010045   0.000149   0.000722
    14  H   -0.000037   0.000013  -0.004263  -0.019039   0.000720   0.000317
    15  H    0.404930  -0.010370  -0.000087  -0.000167  -0.000136  -0.000371
    16  H    0.387991   0.014288   0.000134  -0.000167   0.003703  -0.000239
    17  H    0.412575  -0.014523   0.000074   0.000036  -0.000155   0.000153
    18  H    0.014223   0.387009   0.001672  -0.000418  -0.000284   0.002780
    19  H   -0.015164   0.413998  -0.002664  -0.000176  -0.000293  -0.000207
    20  H   -0.012672   0.414796  -0.000856   0.000082  -0.000230   0.000093
    21  H    0.000116   0.000401   0.403941  -0.014009  -0.000070   0.000156
    22  H   -0.000457   0.001619   0.416737  -0.010835  -0.000075   0.000036
    23  H   -0.000043  -0.012567   0.396490   0.014114   0.000015   0.004960
    24  H   -0.000175   0.000191  -0.011242   0.401114   0.000013  -0.000002
    25  H    0.000028   0.000157  -0.017313   0.408939   0.000001   0.000013
    26  H    0.000050   0.000089   0.013628   0.407247   0.000026  -0.000022
    27  H   -0.016573  -0.005785   0.000723   0.000105  -0.017838  -0.018689
    28  H   -0.000145  -0.000112  -0.008812   0.015501  -0.010585  -0.004631
              13         14         15         16         17         18
     1  O    0.000622  -0.000473   0.009523  -0.002004   0.001427   0.000791
     2  N   -0.002266   0.008570  -0.011849   0.000170   0.009507  -0.003582
     3  C    0.004186   0.001115  -0.022918  -0.019166  -0.035801  -0.021596
     4  C   -0.004298  -0.000386   0.013504  -0.015256  -0.015082  -0.006370
     5  C    0.415365   0.409069  -0.000011  -0.000698   0.000107   0.000542
     6  C   -0.042136  -0.030876   0.000861   0.000770  -0.000236  -0.006346
     7  C    0.000237  -0.000037   0.404930   0.387991   0.412575   0.014223
     8  C   -0.000058   0.000013  -0.010370   0.014288  -0.014523   0.387009
     9  C    0.012080  -0.004263  -0.000087   0.000134   0.000074   0.001672
    10  C   -0.010045  -0.019039  -0.000167  -0.000167   0.000036  -0.000418
    11  H    0.000149   0.000720  -0.000136   0.003703  -0.000155  -0.000284
    12  H    0.000722   0.000317  -0.000371  -0.000239   0.000153   0.002780
    13  H    0.493355  -0.017167  -0.000033   0.000314   0.000005   0.000006
    14  H   -0.017167   0.523745   0.000003   0.000023   0.000002  -0.000012
    15  H   -0.000033   0.000003   0.476962  -0.015791  -0.023890   0.000001
    16  H    0.000314   0.000023  -0.015791   0.524741  -0.025413  -0.000502
    17  H    0.000005   0.000002  -0.023890  -0.025413   0.552945   0.000020
    18  H    0.000006  -0.000012   0.000001  -0.000502   0.000020   0.543153
    19  H    0.000005   0.000011   0.002769  -0.000031   0.000747  -0.021160
    20  H   -0.000007  -0.000003  -0.000430  -0.000018   0.001160  -0.025993
    21  H   -0.000245   0.000873   0.000002  -0.000007  -0.000001   0.000767
    22  H   -0.000335  -0.000206  -0.000007   0.000006  -0.000009  -0.005532
    23  H   -0.000336   0.000098   0.000000  -0.000002  -0.000007  -0.002537
    24  H   -0.000229   0.000293   0.000006   0.000006  -0.000002   0.000052
    25  H    0.000386   0.002478  -0.000005   0.000001  -0.000001  -0.000016
    26  H    0.002909   0.000453  -0.000013   0.000009   0.000003   0.000001
    27  H   -0.000049  -0.000034  -0.000093   0.000487   0.002770  -0.000669
    28  H   -0.023831  -0.024457   0.000005   0.000062  -0.000017  -0.000093
              19         20         21         22         23         24
     1  O    0.013774   0.000052  -0.000453   0.003749   0.000322   0.002781
     2  N   -0.014860   0.008937   0.008784   0.000295  -0.009759  -0.010865
     3  C   -0.033481  -0.035249  -0.002162  -0.010191   0.018476   0.000058
     4  C    0.011977  -0.009800   0.001485   0.002469  -0.012843  -0.000030
     5  C   -0.000236   0.000023  -0.006328   0.011903  -0.009269   0.013178
     6  C    0.004782   0.001086  -0.023347  -0.040039  -0.028638  -0.015545
     7  C   -0.015164  -0.012672   0.000116  -0.000457  -0.000043  -0.000175
     8  C    0.413998   0.414796   0.000401   0.001619  -0.012567   0.000191
     9  C   -0.002664  -0.000856   0.403941   0.416737   0.396490  -0.011242
    10  C   -0.000176   0.000082  -0.014009  -0.010835   0.014114   0.401114
    11  H   -0.000293  -0.000230  -0.000070  -0.000075   0.000015   0.000013
    12  H   -0.000207   0.000093   0.000156   0.000036   0.004960  -0.000002
    13  H    0.000005  -0.000007  -0.000245  -0.000335  -0.000336  -0.000229
    14  H    0.000011  -0.000003   0.000873  -0.000206   0.000098   0.000293
    15  H    0.002769  -0.000430   0.000002  -0.000007   0.000000   0.000006
    16  H   -0.000031  -0.000018  -0.000007   0.000006  -0.000002   0.000006
    17  H    0.000747   0.001160  -0.000001  -0.000009  -0.000007  -0.000002
    18  H   -0.021160  -0.025993   0.000767  -0.005532  -0.002537   0.000052
    19  H    0.473460  -0.018957  -0.000038  -0.000150   0.000519   0.000057
    20  H   -0.018957   0.528614   0.000002   0.000348   0.000261   0.000001
    21  H   -0.000038   0.000002   0.509439  -0.017188  -0.020779  -0.000282
    22  H   -0.000150   0.000348  -0.017188   0.488586  -0.026918   0.002635
    23  H    0.000519   0.000261  -0.020779  -0.026918   0.546147  -0.000043
    24  H    0.000057   0.000001  -0.000282   0.002635  -0.000043   0.496696
    25  H   -0.000015  -0.000000   0.002371   0.000651  -0.000031  -0.026787
    26  H   -0.000007  -0.000002   0.000074  -0.000256  -0.000456  -0.014967
    27  H   -0.000155   0.002543  -0.000016  -0.000007   0.000178  -0.000001
    28  H    0.000016  -0.000006   0.000129  -0.000354   0.003028  -0.000431
              25         26         27         28
     1  O    0.003184  -0.000190  -0.000434  -0.000241
     2  N    0.009645  -0.004167   0.006985  -0.002558
     3  C    0.000315  -0.000401  -0.022298  -0.008161
     4  C   -0.000202  -0.000031   0.406770   0.000929
     5  C   -0.014113  -0.012934   0.001717   0.399593
     6  C   -0.036344  -0.025982  -0.001806  -0.024120
     7  C    0.000028   0.000050  -0.016573  -0.000145
     8  C    0.000157   0.000089  -0.005785  -0.000112
     9  C   -0.017313   0.013628   0.000723  -0.008812
    10  C    0.408939   0.407247   0.000105   0.015501
    11  H    0.000001   0.000026  -0.017838  -0.010585
    12  H    0.000013  -0.000022  -0.018689  -0.004631
    13  H    0.000386   0.002909  -0.000049  -0.023831
    14  H    0.002478   0.000453  -0.000034  -0.024457
    15  H   -0.000005  -0.000013  -0.000093   0.000005
    16  H    0.000001   0.000009   0.000487   0.000062
    17  H   -0.000001   0.000003   0.002770  -0.000017
    18  H   -0.000016   0.000001  -0.000669  -0.000093
    19  H   -0.000015  -0.000007  -0.000155   0.000016
    20  H   -0.000000  -0.000002   0.002543  -0.000006
    21  H    0.002371   0.000074  -0.000016   0.000129
    22  H    0.000651  -0.000256  -0.000007  -0.000354
    23  H   -0.000031  -0.000456   0.000178   0.003028
    24  H   -0.026787  -0.014967  -0.000001  -0.000431
    25  H    0.557856  -0.024881   0.000001   0.000224
    26  H   -0.024881   0.497340   0.000001  -0.000223
    27  H    0.000001   0.000001   0.497346   0.001444
    28  H    0.000224  -0.000223   0.001444   0.533584
          Atomic-Atomic Spin Densities.
               1          2          3          4          5          6
     1  O    0.737875  -0.227871  -0.007515  -0.000588   0.000006   0.015396
     2  N   -0.227871   0.761104   0.029298  -0.002915   0.011857  -0.063342
     3  C   -0.007515   0.029298  -0.038802   0.003868   0.002258   0.000862
     4  C   -0.000588  -0.002915   0.003868  -0.000184  -0.000738   0.001495
     5  C    0.000006   0.011857   0.002258  -0.000738  -0.009098  -0.001782
     6  C    0.015396  -0.063342   0.000862   0.001495  -0.001782  -0.005500
[...]
 0478,-0.00016736,0.00024023,0.00013166,-0.00035116,-0.00001991,-0.0000
 2485,-0.00002532,0.00001312,0.00001984,0.00005527,0.00000307,0.0000007
 0,-0.00001015,-0.00045620,0.00055745,0.00009879,-0.00005653,-0.0001623
 8,0.00002335,0.00013489,0.00002043,0.00015538,-0.00361261,-0.02109816,
 0.02095311,0.05499438,0.00038347,0.00041445,0.00035407,0.00052983,0.00
 091228,0.00027942,-0.00023463,-0.00020854,0.00017282,0.00002743,-0.000
 22020,-0.00011632,-0.00007097,-0.00046457,-0.00227413,0.00247152,0.007
 99348,-0.00905233,0.00006036,0.00007325,-0.00011726,-0.00009793,0.0005
 8596,0.00036858,-0.03189777,-0.18869656,0.13288711,-0.00014001,0.00105
 021,-0.00039291,0.00005588,0.00006342,0.00002239,-0.00011169,0.0001591
 9,0.00005864,0.00003887,0.00067543,-0.00050074,0.00005007,-0.00005624,
 -0.00008302,-0.00001005,0.00002495,0.00001887,-0.00001550,-0.00002184,
 -0.00004879,0.00001412,-0.00001077,0.00001809,-0.00001425,-0.00038717,
 -0.00014447,0.00005212,-0.00002207,0.00005196,-0.00016138,-0.00012589,
 -0.00021111,-0.00057598,-0.00740727,0.00602945,0.03495274,0.20128396,-
 0.00008640,-0.00123580,0.00044387,0.00113477,0.00220920,0.00208668,-0.
 00026959,0.00007553,-0.00047374,0.00002531,0.00003400,0.00000034,-0.00
 148814,-0.00382982,-0.00497911,0.00564991,0.02243139,-0.02229831,-0.00
 002744,-0.00003566,0.00000522,0.00007397,-0.00020159,-0.00012171,0.030
 29958,0.13023624,-0.16811603,-0.00056910,0.00156280,0.00097765,0.00007
 821,-0.00002780,0.00008659,-0.00001996,-0.00003374,-0.00008610,0.00046
 501,0.00129424,-0.00142849,0.00016541,-0.00005032,0.00011769,-0.000030
 03,-0.00001992,-0.00001248,0.00000664,0.00001649,0.00003505,0.00001397
 ,-0.00001107,-0.00000478,-0.00003383,0.00011037,0.00017403,-0.00015641
 ,-0.00004009,-0.00000996,0.00009184,0.00001055,0.00010376,-0.00044405,
 -0.00422187,0.00317451,-0.03335193,-0.14231463,0.18578192,-0.00000025,
 -0.00008086,-0.00010793,0.00094243,0.00009530,0.00084099,0.00017207,0.
 00022556,0.00012926,-0.00084287,0.00053844,-0.00048372,-0.00021274,0.0
 0012935,0.00016880,0.00174578,-0.00437348,-0.00094285,-0.00003066,0.00
 001247,0.00001097,-0.00057247,-0.00008191,0.00033987,-0.15836467,0.132
 70112,0.02750626,0.00051990,-0.00016576,0.00008971,0.00001287,0.000041
 56,0.00003561,-0.00153908,0.00057393,-0.00201278,0.00006245,-0.0002121
 4,0.00000551,-0.00001065,0.00011269,0.00001202,0.00000278,0.00000094,0
 .00002154,0.00001223,0.00001823,0.00001956,0.00004286,-0.00000123,0.00
 000896,-0.00142486,-0.00094468,0.00025572,0.00000731,0.00000850,0.0000
 4745,-0.00007274,-0.00010354,-0.00009266,-0.01784912,0.02291165,0.0043
 5211,0.00350259,-0.00531505,-0.00160506,0.17308207,-0.00055556,0.00006
 586,-0.00010526,0.00050547,0.00011660,0.00031504,-0.00005452,-0.000620
 69,-0.00062523,0.00030630,-0.00061997,0.00029191,-0.00064568,0.0005026
 0,0.00072863,0.00764005,-0.00976276,-0.00044720,-0.00017371,0.00005847
 ,0.00011660,-0.00018386,-0.00040424,-0.00073048,0.13118011,-0.20125272
 ,-0.03147636,-0.00140966,-0.00025866,-0.00276818,0.00016425,0.00001285
 ,0.00019712,0.00116546,0.00070145,0.00100399,-0.00013108,0.00004716,-0
 .00001841,-0.00010070,0.00001978,0.00006340,0.00004990,0.00002348,-0.0
 0001142,0.00003866,0.00001050,0.00008676,-0.00007196,-0.00001173,-0.00
 003058,-0.00040617,0.00008709,0.00070742,0.00019302,0.00012907,0.00008
 486,0.00019431,0.00019395,0.00027066,-0.00761408,0.00966597,0.00227398
 ,0.01463338,-0.01586260,-0.00455656,-0.14590588,0.21622884,-0.00031827
 ,0.00020539,0.00020623,0.00078904,0.00100943,0.00099027,-0.00027167,-0
 .00083439,0.00006227,-0.00040168,-0.00029385,-0.00054993,0.00044477,-0
 .00118624,0.00207643,0.02153758,-0.02190435,-0.00392307,-0.00007579,0.
 00023879,-0.00011381,-0.00009901,0.00033420,0.00008225,0.02591592,-0.0
 3015219,-0.05341366,-0.00159638,-0.00177942,-0.00595322,0.00009802,0.0
 0007751,0.00009495,-0.00166056,0.00094531,-0.00075509,-0.00023000,0.00
 013496,0.00024656,-0.00007057,0.00000353,-0.00002871,0.00005416,0.0000
 5527,0.00004269,-0.00000055,-0.00002677,-0.00001605,-0.00003414,-0.000
 02237,-0.00000635,0.00040900,0.00020911,0.00011957,0.00005685,0.000019
 59,-0.00005064,-0.00005675,-0.00002052,-0.00002338,-0.00225313,0.00344
 770,-0.00037280,-0.01506321,0.01518028,0.00378029,-0.02841690,0.034901
 44,0.05768945,-0.00425505,-0.00071825,-0.00052866,0.00108696,0.0000830
 2,0.00009276,-0.00038950,0.00013195,0.00006870,0.00018811,0.00000676,-
 0.00002932,-0.00336486,0.00263303,0.00115802,0.00201617,0.01575262,-0.
 01687866,0.00006207,-0.00008971,-0.00004470,0.00009631,-0.00005995,0.0
 0004453,0.00050726,-0.00060974,-0.00108416,-0.04685209,-0.01782444,0.0
 1964386,0.00004007,-0.00001122,0.00004965,0.00002355,-0.00003951,-0.00
 005477,0.00000877,-0.00010550,0.00009670,0.00044494,0.00015706,0.00005
 433,-0.00004417,-0.00001681,-0.00001554,-0.00001153,0.00000463,0.00000
 671,0.00004961,-0.00000355,0.00001784,-0.00000848,0.00001010,-0.000009
 35,-0.00005995,-0.00001235,0.00003394,0.00003500,-0.00002155,-0.000031
 93,-0.00002090,-0.00014592,0.00013837,0.00013632,0.00001611,0.00043873
 ,-0.00012530,-0.00017231,-0.00007477,0.05175544,-0.00316947,0.00096782
 ,-0.00130175,-0.00070091,-0.00118338,-0.00004604,0.00005526,-0.0000876
 8,0.00022499,0.00002854,0.00005432,0.00000550,0.00321571,-0.00323708,-
 0.00135707,-0.00285601,-0.01649491,0.01570516,-0.00001850,0.00005219,-
 0.00002290,-0.00001010,0.00006269,0.00003299,-0.00078418,0.00091322,0.
 00134489,-0.01471817,-0.18898890,0.13926002,-0.00006829,-0.00000758,-0
 .00007926,-0.00002710,0.00000838,0.00006877,0.00013629,-0.00005096,0.0
 0022441,0.00034534,0.00023646,-0.00027393,0.00001941,0.00002852,0.0000
 1114,0.00000005,-0.00001201,-0.00001383,-0.00000673,0.00001297,-0.0000
 0723,0.00001581,-0.00003072,-0.00002073,0.00002630,0.00002273,-0.00001
 801,-0.00001665,-0.00000315,-0.00001722,-0.00001023,-0.00018543,-0.000
 05121,0.00036482,-0.00003399,-0.00086755,-0.00000324,0.00045649,-0.000
 13498,0.01711404,0.20609224,0.00209852,-0.00059202,0.00042862,-0.00001
 849,0.00124546,0.00020937,-0.00012706,-0.00014231,-0.00011643,0.000052
 81,0.00000185,-0.00000507,0.00012870,-0.00052180,0.00081562,-0.0011820
 5,-0.00402656,0.00198358,0.00000170,-0.00001327,-0.00003668,0.00003731
 ,-0.00002653,0.00003922,-0.00003561,-0.00078284,0.00088125,0.01603813,
 0.14024093,-0.18489085,0.00001433,-0.00000046,0.00001558,-0.00001440,-
 0.00003236,-0.00001967,0.00021619,-0.00028924,0.00025573,0.00010467,-0
 .00028135,-0.00005287,-0.00003177,-0.00001614,-0.00000206,0.00000055,-
 0.00000358,0.00001170,0.00001075,-0.00001513,0.00000906,0.00000420,-0.
 00002099,-0.00001102,-0.00000765,0.00000745,0.00002708,0.00000754,0.00
 000250,-0.00002916,-0.00022959,0.00006671,-0.00003102,0.00033490,-0.00
 020119,0.00015903,-0.00013377,0.00002159,0.00009570,-0.02030777,-0.151
 38920,0.19629886,-0.00063921,0.00107661,-0.00017636,-0.00333221,0.0027
 9670,0.00089599,0.00033768,-0.00142895,-0.00015004,0.00002435,-0.00017
 453,0.00004194,-0.00009500,-0.00189342,0.00061243,-0.02074547,-0.01135
 422,-0.00231859,-0.00036351,0.00027354,0.00017926,-0.00026742,0.000095
 21,-0.00012862,0.00023178,-0.00115368,-0.00073302,-0.26444177,-0.10363
 070,-0.01666512,-0.00000490,0.00000918,-0.00006712,0.00003588,0.000077
 06,0.00005888,0.00011838,0.00003764,0.00012161,0.00109208,0.00062296,-
 0.00041702,0.00005859,0.00001605,0.00001690,0.00002991,-0.00000432,-0.
 00001045,-0.00013210,-0.00003414,-0.00009621,0.00001722,0.00002623,0.0
 0005669,0.00004254,0.00000787,-0.00003820,-0.00005936,0.00002597,0.000
 12192,0.00064286,0.00046611,0.00057608,-0.00000469,0.00010162,-0.00005
 883,0.00052294,0.00021018,-0.00005596,-0.00120574,-0.00019011,0.000225
 71,0.28894210,-0.00282453,0.00063348,0.00009587,0.00426726,-0.00498543
 ,-0.00057030,0.00049217,0.00097141,0.00021628,-0.00004792,0.00016210,-
 0.00002314,0.00126292,0.00033131,0.00004901,0.02055176,0.00710941,0.00
 193491,0.00023044,-0.00013404,-0.00009242,0.00003521,-0.00001403,0.000
 05578,0.00028917,0.00052658,0.00033376,-0.10858007,-0.09760715,-0.0082
 3168,-0.00000043,-0.00000360,0.00001666,-0.00000218,-0.00000846,-0.000
 01200,0.00005051,-0.00008726,0.00010443,0.00071624,-0.00079699,0.00048
 370,0.00003090,0.00002308,-0.00000020,0.00000079,-0.00000670,0.0000195
 1,0.00005302,0.00006906,0.00007355,-0.00000443,-0.00000402,-0.00002381
 ,0.00002507,0.00000451,-0.00002636,-0.00000449,0.00000017,-0.00004334,
 0.00019856,-0.00014169,-0.00032135,-0.00007537,-0.00001258,-0.00011094
 ,-0.00007725,0.00012136,0.00023383,-0.01935645,-0.00850614,-0.00394234
 ,0.11397249,0.10822413,0.00081183,-0.00008008,0.00094885,0.00062607,-0
 .00006027,0.00006261,0.00006516,0.00012777,0.00028275,0.00002333,0.000
 01213,-0.00000183,-0.00070235,0.00015849,-0.00029563,0.00332610,0.0019
 1775,-0.00182343,0.00011692,-0.00006718,-0.00004884,-0.00007725,0.0000
 4550,0.00003340,0.00048962,0.00023187,-0.00005815,-0.01687142,-0.00799
 855,-0.04922818,-0.00000908,-0.00001258,-0.00001675,-0.00000053,-0.000
 00642,0.00001213,-0.00015302,0.00002971,0.00002277,-0.00038755,0.00084
 697,0.00004312,0.00000054,-0.00000842,-0.00001167,0.00000293,-0.000014
 33,0.00001065,0.00002455,0.00001055,0.00004057,0.00000326,-0.00000336,
 -0.00000677,-0.00000838,0.00000537,-0.00000673,-0.00000954,-0.00000426
 ,0.00001503,0.00035875,-0.00066210,-0.00025237,0.00012479,0.00003304,-
 0.00004207,-0.00019149,0.00010605,-0.00001250,0.02067685,0.00770090,0.
 00253570,0.01804822,0.00896538,0.04800373,-0.00076331,-0.00070981,0.00
 042918,0.00144278,0.00044656,0.00023681,-0.00017641,0.00022866,-0.0000
 8033,0.00009131,0.00003981,0.00001524,0.00046753,-0.00090668,0.0007021
 7,0.00122360,0.00948921,0.02173504,0.00004083,-0.00004671,0.00001493,0
 .00013704,-0.00002661,0.00004384,-0.00347936,0.00305089,0.00012103,-0.
 04832557,-0.01140642,-0.02649491,-0.00001293,0.00000473,-0.00001147,0.
 00002174,-0.00006481,0.00000306,0.00012970,0.00007633,-0.00034708,-0.0
 0005012,-0.00004436,-0.00026252,-0.00004079,-0.00001532,0.00000568,-0.
 00002174,0.00002487,-0.00003748,0.00003651,-0.00001454,-0.00000528,0.0
 0002007,-0.00001835,-0.00004660,-0.00002036,-0.00000470,0.00001622,0.0
 0001996,-0.00001099,-0.00004949,0.00030048,0.00019940,0.00000548,-0.00
 008319,-0.00002597,-0.00020354,0.00039308,0.00081363,0.00133122,-0.000
 60645,0.00112332,0.00264674,-0.00145460,-0.01117224,-0.02644198,0.0508
 7259,-0.00018991,0.00038968,0.00006404,-0.00104863,0.00022758,0.000639
 10,0.00005207,-0.00011428,0.00017189,-0.00002524,-0.00002696,-0.000059
 96,-0.00054011,0.00119177,-0.00087721,-0.00353403,-0.01071821,-0.02106
 467,0.00001933,-0.00000355,-0.00004233,-0.00010995,-0.00001274,-0.0000
 4605,0.00353919,-0.00317756,0.00028934,-0.01006025,-0.09498996,-0.1032
 5007,0.00003418,-0.00000390,0.00004891,-0.00003086,0.00004785,-0.00003
 422,0.00043333,-0.00039101,0.00050985,-0.00020553,-0.00013250,-0.00001
 668,-0.00000678,0.00000428,0.00000969,0.00001465,0.00000009,0.00002671
 ,0.00000197,0.00000433,0.00001261,-0.00002622,0.00000847,0.00004754,0.
 00001352,0.00001204,0.00000938,0.00000927,0.00001815,0.00003674,0.0001
 6348,0.00012135,0.00036391,0.00011909,0.00011166,-0.00022056,0.0001530
 9,-0.00022764,-0.00154410,0.00222119,0.01066604,0.02080701,-0.00016529
 ,-0.00609651,-0.01125649,0.00919096,0.10281694,-0.00099558,0.00098361,
 0.00119639,-0.00025413,-0.00101672,-0.00015082,0.00014182,0.00005800,-
 0.00006444,-0.00006147,-0.00002763,-0.00001755,-0.00026239,0.00058268,
 0.00062075,-0.00011485,-0.00092962,-0.00441257,0.00001489,-0.00000616,
 -0.00000516,-0.00006827,0.00001125,-0.00005168,0.00138804,-0.00101698,
 0.00077861,-0.02358937,-0.10416975,-0.26999576,0.00001219,-0.00000757,
 0.00001137,0.00000098,0.00005950,0.00001948,-0.00014494,-0.00017380,0.
 00043238,0.00023084,-0.00023962,-0.00001676,0.00002292,0.00001188,-0.0
 0000722,0.00002214,-0.00000882,0.00002457,-0.00000871,0.00001512,0.000
 01442,-0.00001830,0.00003338,0.00004921,-0.00000282,0.00000111,-0.0000
 2508,0.00001023,0.00001364,0.00004428,-0.00009690,0.00026431,0.0001473
 2,-0.00018381,0.00007378,0.00037458,-0.00014833,-0.00033537,-0.0001397
 7,-0.00256567,-0.01020557,-0.01901293,-0.00014803,0.00090342,-0.000085
 50,0.02665967,0.11509147,0.29007961,0.00017336,0.00013816,-0.00003166,
 0.00147639,-0.00078258,-0.00031959,-0.00314092,0.00043520,0.00046192,-
 0.28863634,0.08059749,0.02722609,-0.00051911,-0.00086452,-0.00003343,0
 .00029873,-0.00037907,0.00019430,0.00003733,-0.00138534,-0.00000452,0.
 00012947,-0.00082474,0.00028892,0.00005450,-0.00015496,-0.00017549,0.0
 0001795,0.00003575,-0.00006251,-0.00723478,0.00205592,0.00021514,-0.01
 644981,0.00573210,0.00244140,0.00005965,-0.00000457,0.00000402,-0.0001
 8318,0.00030469,0.00007033,0.00036386,-0.00004545,-0.00018774,-0.00002
 849,0.00008287,-0.00012822,0.00061897,-0.00049665,0.00011756,-0.000124
 17,0.00015007,0.00001054,0.00033993,-0.00003595,-0.00001726,0.00046581
 ,-0.00009358,-0.00019237,-0.00007087,0.00007835,-0.00000320,-0.0000672
 2,0.00007458,-0.00004203,-0.00012737,0.00015544,0.00016745,-0.00001890
 ,0.00003925,-0.00001488,0.00001446,-0.00001131,0.00000740,-0.00000611,
 -0.00000182,0.00001220,0.31287761,0.00228031,-0.00266764,0.00023661,-0
 .00322822,-0.00484471,0.00151844,0.03230330,-0.01145725,-0.00393924,0.
 07734712,-0.06996857,-0.00897373,-0.00043140,-0.00053406,0.00011620,-0
 .00064436,-0.00057522,-0.00005549,0.00144200,0.00085239,-0.00003203,0.
 00062867,0.00107409,-0.00071615,0.00013752,-0.00006548,-0.00024331,0.0
 0010665,0.00015879,0.00000865,-0.00519335,0.00078931,-0.00021644,-0.01
 672437,0.00576814,0.00306911,0.00000293,-0.00001735,0.00005190,-0.0001
 6579,0.00031104,0.00001166,-0.00012772,0.00034699,0.00018300,-0.000101
 73,-0.00006022,-0.00000061,-0.00081486,-0.00064526,-0.00026350,-0.0001
 1506,-0.00001441,0.00005991,-0.00020462,0.00016013,-0.00034213,-0.0005
 3107,-0.00013974,0.00065124,-0.00002433,0.00009201,0.00009707,-0.00004
 378,0.00002710,-0.00002761,-0.00011124,0.00012741,0.00011851,-0.000060
 72,0.00001620,-0.00003944,0.00008610,-0.00000045,0.00000065,-0.0000347
 9,-0.00000892,0.00002789,-0.08551395,0.08071266,-0.00049361,0.00054833
 ,0.00029651,0.00046365,0.00123839,-0.00019913,-0.00767576,0.00239250,-
 0.00045392,0.02761197,-0.00954712,-0.04987601,0.00058745,0.00028554,0.
 00002049,0.00016766,-0.00009476,-0.00034629,0.00025488,-0.00057776,-0.
 00009141,-0.00066625,0.00028539,0.00010463,-0.00004239,-0.00024217,-0.
 00021603,-0.00000341,-0.00005245,0.00006585,0.02884250,-0.01021799,-0.
 00166447,-0.01873063,0.00726370,0.00207912,-0.00017213,0.00022370,0.00
 024740,0.00016030,-0.00013173,0.00019835,-0.00010442,0.00003707,-0.000
 19549,0.00014915,-0.00006280,-0.00006643,-0.00011624,-0.00044240,0.000
 29661,-0.00014359,-0.00005715,-0.00008841,0.00000204,-0.00021509,-0.00
 000622,0.00024734,0.00057497,-0.00019590,-0.00009088,0.00010575,-0.000
 04693,-0.00008690,0.00007519,0.00003317,-0.00013932,0.00020308,0.00016
 215,0.00001433,-0.00002308,0.00000507,-0.00001964,0.00000594,-0.000003
 89,-0.00000823,0.00002830,0.00001287,-0.03014232,0.00860530,0.05016145
 ,-0.00021350,0.00001289,-0.00008745,0.00036947,0.00007665,-0.00013860,
 0.00039510,-0.00053684,0.00015514,-0.00476021,0.00018155,0.00071186,-0
 .11100090,0.11748893,0.02748354,0.00249740,-0.00620294,-0.00216669,-0.
 00005619,0.00018356,-0.00011611,-0.00008605,0.00023068,0.00005168,0.00
 014047,-0.00001570,-0.00038074,-0.00002646,0.00009869,-0.00003962,-0.0
 0224464,-0.00045421,0.00020663,-0.00229019,-0.00029156,0.00089901,0.00
 460008,-0.00956517,-0.00168276,-0.01437473,0.02689020,0.00698706,0.000
 05830,0.00005251,0.00004251,0.00000877,-0.00002710,-0.00000764,-0.0000
 0628,-0.00001002,0.00001210,0.00000788,-0.00002850,-0.00000175,0.00003
 440,0.00003122,-0.00007829,-0.00000549,-0.00002085,0.00000661,-0.00023
 519,0.00016921,-0.00005840,-0.00006364,-0.00015755,-0.00005704,0.00015
 143,0.00017503,-0.00012466,0.00051234,0.00009553,0.00018030,0.00063518
 ,-0.00001983,0.00014629,-0.00015627,-0.00002072,0.00014766,-0.00032073
 ,-0.00026324,0.00013447,0.12642964,-0.00075084,-0.00006115,-0.00003478
 ,0.00033485,0.00032682,0.00036072,0.00015711,-0.00103663,0.00007240,0.
 00172598,-0.00049955,-0.00023204,0.11360768,-0.25054504,-0.04709293,0.
 01201857,-0.01692885,-0.00624004,-0.00012363,0.00020518,-0.00001387,-0
 .00014519,0.00020606,-0.00003990,-0.00006510,0.00098014,-0.00171264,-0
 .00208881,-0.00228539,0.00375998,-0.00020454,0.00010200,-0.00093269,0.
 00068527,0.00086506,0.00053735,0.00488551,-0.00822745,-0.00117543,-0.0
 0331780,0.00699188,0.00180109,0.00006862,0.00006898,0.00002641,0.00002
 064,-0.00003457,-0.00001216,-0.00009861,-0.00002149,-0.00002563,0.0000
 1709,-0.00001853,0.00003467,0.00004377,0.00004918,-0.00008357,-0.00006
 722,-0.00000635,0.00007285,-0.00000938,-0.00005806,0.00020361,-0.00024
 884,0.00015495,-0.00017529,-0.00014656,0.00045206,0.00078434,0.0011174
 4,-0.00076834,-0.00005676,0.00012784,0.00022844,-0.00001811,-0.0001860
 6,0.00028353,0.00000658,0.00071463,0.00056302,-0.00020866,-0.12807241,
 0.26901409,0.00023297,0.00018810,0.00003633,-0.00015125,-0.00059868,0.
 00024517,0.00003382,0.00011895,-0.00026552,0.00148161,0.00017100,0.000
 60391,0.02758730,-0.04928125,-0.05964236,-0.01365241,0.01846680,0.0044
 9949,0.00005194,-0.00012930,-0.00000388,0.00003082,0.00011586,0.000041
 48,-0.00066928,0.00060672,0.00190044,0.00100232,0.00322017,-0.00348105
 ,-0.00083178,-0.00041941,-0.00045797,0.00179272,0.00000065,-0.00053694
 ,0.01560035,-0.02372353,-0.00456946,0.00000356,-0.00005910,-0.00097509
 ,-0.00002239,-0.00000434,-0.00003018,0.00001941,-0.00002463,-0.0000016
 8,0.00001142,-0.00000345,0.00002470,0.00000827,-0.00001310,-0.00003193
 ,-0.00000489,0.00000295,-0.00003084,-0.00001489,-0.00000908,-0.0000112
 4,-0.00014452,-0.00009163,-0.00001932,0.00005143,-0.00016678,0.0002384
 1,0.00043048,-0.00026747,-0.00028984,-0.00091002,0.00125077,0.00043657
 ,0.00012758,-0.00009412,-0.00011702,0.00002260,0.00025586,0.00017939,0
 .00013794,0.00009356,-0.00023312,-0.03222511,0.05039448,0.06249154\\-0
 .00006961,-0.00003077,-0.00000360,-0.00002922,0.00004706,0.00001438,-0
 .00002293,-0.00002077,-0.00000485,0.00002487,0.00001093,0.00000438,-0.
 00000665,-0.00001856,0.00001495,0.00002667,-0.00000997,-0.00001068,0.0
 0001780,-0.00000143,-0.00000312,-0.00000950,-0.00000291,0.00000471,0.0
 0000147,0.00001682,-0.00000174,0.00003583,0.00000733,0.00001231,0.0000
 0370,0.00000132,0.00000136,-0.00000495,-0.00000367,-0.00000963,0.00000
 234,0.00000204,0.00000368,-0.00000021,-0.00000630,-0.00000159,0.000006
 27,-0.00000593,0.00000937,-0.00000402,0.00000315,0.00000445,0.00000747
 ,-0.00000723,0.00000111,0.00000196,-0.00000040,0.00000075,0.00000462,0
 .00000642,0.00000101,0.00001051,-0.00000318,-0.00000412,-0.00000043,0.
 00000115,-0.00000040,-0.00000498,0.00000052,-0.00000730,0.00001295,-0.
 00000918,-0.00000783,0.00000883,0.00002123,-0.00001176,0.00000128,0.00
 000184,-0.00000443,-0.00000212,0.00000356,-0.00000146,0.00000098,-0.00
 000478,-0.00000154,-0.00001290,0.00000170,0.00000158\\\@
 The archive entry for this job was punched.


 I MET A TRAVELLER FROM AN ANTIQUE LAND
 WHO SAID... TWO VAST AND TRUNKLESS LEGS OF STONE
 STAND IN THE DESERT..... NEAR THEM,  ON THE SAND,
 HALF SUNK,  A SHATTERED VISAGE LIES,  WHOSE FROWN,
 AND WRINKLED LIP,  AND SNEER OF COLD COMMAND
 TELL THAT ITS SCULPTOR WELL THOSE PASSIONS READ
 WHICH YET SURVIVE,  STAMPED ON THESE LIFELESS THINGS
 THE HAND THAT MOCKED THEM,  AND THE HEART THAT FED-
 AND ON THE PEDESTAL THESE WORDS APPEAR 
 MY NAME IS OZYMANDIAS, KING OF KINGS--   
 LOOK ON MY WORKS YE MIGHTY AND DESPAIR. 
 NOTHING BESIDE REMAINS,  ROUND THE DECAY 
 OF THAT COLOSSAL WRECK,  BOUNDLESS AND BARE
 THE LONE AND LEVEL SANDS STRETCH FAR AWAY.
                                    SHELLEY
 Job cpu time:       0 days 15 hours 50 minutes 11.7 seconds.
 Elapsed time:       0 days  0 hours 47 minutes 31.6 seconds.
 File lengths (MBytes):  RWF=    719 Int=      0 D2E=      0 Chk=     21 Scr=      1
 Normal termination of Gaussian 16 at Tue Jan  7 18:11:28 2025.
