 Entering Gaussian System, Link 0=g16
 Input=gjfs/data_set_12-catalyst-26.gjf
 Output=gjfs/data_set_12-catalyst-26.log
 Initial command:
 /usr/local/intel/g16/l1.exe "/scr/Gau-4139209.inp" -scrdir="/scr/"
 Entering Link 1 = /usr/local/intel/g16/l1.exe PID=   4139219.
  
 Copyright (c) 1988-2019, Gaussian, Inc.  All Rights Reserved.
  
 This is part of the Gaussian(R) 16 program.  It is based on
 the Gaussian(R) 09 system (copyright 2009, Gaussian, Inc.),
 the Gaussian(R) 03 system (copyright 2003, Gaussian, Inc.),
 the Gaussian(R) 98 system (copyright 1998, Gaussian, Inc.),
 the Gaussian(R) 94 system (copyright 1995, Gaussian, Inc.),
 the Gaussian 92(TM) system (copyright 1992, Gaussian, Inc.),
 the Gaussian 90(TM) system (copyright 1990, Gaussian, Inc.),
 the Gaussian 88(TM) system (copyright 1988, Gaussian, Inc.),
 the Gaussian 86(TM) system (copyright 1986, Carnegie Mellon
 University), and the Gaussian 82(TM) system (copyright 1983,
 Carnegie Mellon University). Gaussian is a federally registered
 trademark of Gaussian, Inc.
  
 This software contains proprietary and confidential information,
 including trade secrets, belonging to Gaussian, Inc.
  
 This software is provided under written license and may be
 used, copied, transmitted, or stored only in accord with that
 written license.
  
 The following legend is applicable only to US Government
 contracts under FAR:
  
                    RESTRICTED RIGHTS LEGEND
  
 Use, reproduction and disclosure by the US Government is
 subject to restrictions as set forth in subparagraphs (a)
 and (c) of the Commercial Computer Software - Restricted
 Rights clause in FAR 52.227-19.
  
 Gaussian, Inc.
 340 Quinnipiac St., Bldg. 40, Wallingford CT 06492
  
  
 ---------------------------------------------------------------
 Warning -- This program may not be used in any manner that
 competes with the business of Gaussian, Inc. or will provide
 assistance to any competitor of Gaussian, Inc.  The licensee
 of this program is prohibited from giving any competitor of
 Gaussian, Inc. access to this program.  By using this program,
 the user acknowledges that Gaussian, Inc. is engaged in the
 business of creating and licensing software in the field of
 computational chemistry and represents and warrants to the
 licensee that it is not a competitor of Gaussian, Inc. and that
 it will not use this program in any manner prohibited above.
 ---------------------------------------------------------------
  

 Cite this work as:
 Gaussian 16, Revision C.01,
 M. J. Frisch, G. W. Trucks, H. B. Schlegel, G. E. Scuseria, 
 M. A. Robb, J. R. Cheeseman, G. Scalmani, V. Barone, 
 G. A. Petersson, H. Nakatsuji, X. Li, M. Caricato, A. V. Marenich, 
 J. Bloino, B. G. Janesko, R. Gomperts, B. Mennucci, H. P. Hratchian, 
 J. V. Ortiz, A. F. Izmaylov, J. L. Sonnenberg, D. Williams-Young, 
 F. Ding, F. Lipparini, F. Egidi, J. Goings, B. Peng, A. Petrone, 
 T. Henderson, D. Ranasinghe, V. G. Zakrzewski, J. Gao, N. Rega, 
 G. Zheng, W. Liang, M. Hada, M. Ehara, K. Toyota, R. Fukuda, 
 J. Hasegawa, M. Ishida, T. Nakajima, Y. Honda, O. Kitao, H. Nakai, 
 T. Vreven, K. Throssell, J. A. Montgomery, Jr., J. E. Peralta, 
 F. Ogliaro, M. J. Bearpark, J. J. Heyd, E. N. Brothers, K. N. Kudin, 
 V. N. Staroverov, T. A. Keith, R. Kobayashi, J. Normand, 
 K. Raghavachari, A. P. Rendell, J. C. Burant, S. S. Iyengar, 
 J. Tomasi, M. Cossi, J. M. Millam, M. Klene, C. Adamo, R. Cammi, 
 J. W. Ochterski, R. L. Martin, K. Morokuma, O. Farkas, 
 J. B. Foresman, and D. J. Fox, Gaussian, Inc., Wallingford CT, 2019.
 
 ******************************************
 Gaussian 16:  ES64L-G16RevC.01  3-Jul-2019
                 7-Jan-2025 
 ******************************************
 %nprocshared=20
 Will use up to   20 processors via shared memory.
 %mem=30GB
 %chk=outputs/data_set_12-catalyst-26.chk
 ----------------------------------
 #p M062X/DEF2TZVP opt freq pop=NBO
 ----------------------------------
 1/18=20,19=15,26=3,38=1/1,3;
 2/9=110,12=2,17=6,18=5,40=1/2;
 3/5=44,7=101,11=2,25=1,30=1,71=1,74=-55/1,2,3;
 4//1;
 5/5=2,38=5/2;
 6/7=2,8=2,9=2,10=2,28=1,40=1/1,7;
 7//1,2,3,16;
 1/18=20,19=15,26=3/3(2);
 2/9=110/2;
 99//99;
 2/9=110/2;
 3/5=44,7=101,11=2,25=1,30=1,71=1,74=-55/1,2,3;
 4/5=5,16=3,69=1/1;
 5/5=2,38=5/2;
 7//1,2,3,16;
 1/18=20,19=15,26=3/3(-5);
 2/9=110/2;
 6/7=2,8=2,9=2,10=2,19=2,28=1,40=1/1,7;
 99/9=1/99;
 Leave Link    1 at Tue Jan  7 16:43:06 2025, MaxMem=  4026531840 cpu:               0.7 elap:               0.2
 (Enter /usr/local/intel/g16/l101.exe)
 -----------------------
 data_set_12-catalyst-26
 -----------------------
 Symbolic Z-matrix:
 Charge =  0 Multiplicity = 2
 O                     0.00001  -0.00004   2.03088 
 N                     0.00005  -0.00009   0.7196 
 C                    -0.90095  -0.87777  -0.07944 
 C                    -0.27111  -0.72136  -1.48674 
 C                     0.27107   0.72132  -1.48674 
 C                     0.90093   0.87771  -0.07945 
 C                     0.83912   2.31298   0.47 
 C                    -0.83924  -2.31306   0.46994 
 C                     2.34663   0.35053  -0.04969 
 H                    -0.99453  -0.89315  -2.28506 
 H                     0.5529   -1.4341   -1.60333 
 H                     0.99444   0.89311  -2.2851 
 H                    -0.55296   1.43405  -1.60332 
 H                     0.19038  -2.68485   0.44266 
 H                    -1.46836  -2.9776   -0.1298 
 H                    -1.19401  -2.33176   1.50369 
 H                     1.19393   2.33166   1.50373 
 H                    -0.19053   2.68469   0.44279 
 H                     1.46815   2.97761  -0.12974 
 C                    -2.34661  -0.3505   -0.04968 
 C                    -2.74754   0.69625   0.79632 
 C                    -4.07725   1.14632   0.79146 
 C                    -5.0257    0.55301  -0.05223 
 C                    -4.63497  -0.50119  -0.89303 
 C                    -3.30781  -0.94711  -0.88838 
 C                     3.30781   0.94712  -0.88843 
 C                     4.63499   0.50125  -0.89306 
 C                     5.02575  -0.55291  -0.05222 
 C                     4.0773   -1.14623   0.79148 
 C                     2.74758  -0.6962    0.79631 
 H                    -2.03144   1.14886   1.47216 
 H                    -4.37027   1.95548   1.45264 
 H                    -6.05318   0.90159  -0.05316 
 H                    -5.36075  -0.97307  -1.54745 
 H                    -3.02287  -1.76607  -1.54383 
 H                     3.02286   1.76605  -1.54391 
 H                     5.36076   0.97313  -1.54749 
 H                     6.05323  -0.90147  -0.05315 
 H                     4.37033  -1.95537   1.45266 
 H                     2.03147  -1.14883   1.47214 
 
 ITRead=  0  0  0  0  0  0  0  0  0  0  0  0  0  0  0  0  0  0  0  0
 ITRead=  0  0  0  0  0  0  0  0  0  0  0  0  0  0  0  0  0  0  0  0
 MicOpt= -1 -1 -1 -1 -1 -1 -1 -1 -1 -1 -1 -1 -1 -1 -1 -1 -1 -1 -1 -1
 MicOpt= -1 -1 -1 -1 -1 -1 -1 -1 -1 -1 -1 -1 -1 -1 -1 -1 -1 -1 -1 -1
 NAtoms=     40 NQM=       40 NQMF=       0 NMMI=      0 NMMIF=      0
                NMic=       0 NMicF=      0.
                    Isotopes and Nuclear Properties:
 (Nuclear quadrupole moments (NQMom) in fm**2, nuclear magnetic moments (NMagM)
  in nuclear magnetons)

  Atom         1           2           3           4           5           6           7           8           9          10
 IAtWgt=          16          14          12          12          12          12          12          12          12           1
 AtmWgt=  15.9949146  14.0030740  12.0000000  12.0000000  12.0000000  12.0000000  12.0000000  12.0000000  12.0000000   1.0078250
 NucSpn=           0           2           0           0           0           0           0           0           0           1
 AtZEff=  -0.0000000  -0.0000000  -0.0000000  -0.0000000  -0.0000000  -0.0000000  -0.0000000  -0.0000000  -0.0000000  -0.0000000
 NQMom=    0.0000000   2.0440000   0.0000000   0.0000000   0.0000000   0.0000000   0.0000000   0.0000000   0.0000000   0.0000000
 NMagM=    0.0000000   0.4037610   0.0000000   0.0000000   0.0000000   0.0000000   0.0000000   0.0000000   0.0000000   2.7928460
 AtZNuc=   8.0000000   7.0000000   6.0000000   6.0000000   6.0000000   6.0000000   6.0000000   6.0000000   6.0000000   1.0000000

  Atom        11          12          13          14          15          16          17          18          19          20
 IAtWgt=           1           1           1           1           1           1           1           1           1          12
 AtmWgt=   1.0078250   1.0078250   1.0078250   1.0078250   1.0078250   1.0078250   1.0078250   1.0078250   1.0078250  12.0000000
 NucSpn=           1           1           1           1           1           1           1           1           1           0
 AtZEff=  -0.0000000  -0.0000000  -0.0000000  -0.0000000  -0.0000000  -0.0000000  -0.0000000  -0.0000000  -0.0000000  -0.0000000
 NQMom=    0.0000000   0.0000000   0.0000000   0.0000000   0.0000000   0.0000000   0.0000000   0.0000000   0.0000000   0.0000000
 NMagM=    2.7928460   2.7928460   2.7928460   2.7928460   2.7928460   2.7928460   2.7928460   2.7928460   2.7928460   0.0000000
 AtZNuc=   1.0000000   1.0000000   1.0000000   1.0000000   1.0000000   1.0000000   1.0000000   1.0000000   1.0000000   6.0000000

  Atom        21          22          23          24          25          26          27          28          29          30
 IAtWgt=          12          12          12          12          12          12          12          12          12          12
 AtmWgt=  12.0000000  12.0000000  12.0000000  12.0000000  12.0000000  12.0000000  12.0000000  12.0000000  12.0000000  12.0000000
 NucSpn=           0           0           0           0           0           0           0           0           0           0
 AtZEff=  -0.0000000  -0.0000000  -0.0000000  -0.0000000  -0.0000000  -0.0000000  -0.0000000  -0.0000000  -0.0000000  -0.0000000
 NQMom=    0.0000000   0.0000000   0.0000000   0.0000000   0.0000000   0.0000000   0.0000000   0.0000000   0.0000000   0.0000000
 NMagM=    0.0000000   0.0000000   0.0000000   0.0000000   0.0000000   0.0000000   0.0000000   0.0000000   0.0000000   0.0000000
 AtZNuc=   6.0000000   6.0000000   6.0000000   6.0000000   6.0000000   6.0000000   6.0000000   6.0000000   6.0000000   6.0000000

  Atom        31          32          33          34          35          36          37          38          39          40
 IAtWgt=           1           1           1           1           1           1           1           1           1           1
 AtmWgt=   1.0078250   1.0078250   1.0078250   1.0078250   1.0078250   1.0078250   1.0078250   1.0078250   1.0078250   1.0078250
 NucSpn=           1           1           1           1           1           1           1           1           1           1
 AtZEff=  -0.0000000  -0.0000000  -0.0000000  -0.0000000  -0.0000000  -0.0000000  -0.0000000  -0.0000000  -0.0000000  -0.0000000
 NQMom=    0.0000000   0.0000000   0.0000000   0.0000000   0.0000000   0.0000000   0.0000000   0.0000000   0.0000000   0.0000000
 NMagM=    2.7928460   2.7928460   2.7928460   2.7928460   2.7928460   2.7928460   2.7928460   2.7928460   2.7928460   2.7928460
 AtZNuc=   1.0000000   1.0000000   1.0000000   1.0000000   1.0000000   1.0000000   1.0000000   1.0000000   1.0000000   1.0000000
 Leave Link  101 at Tue Jan  7 16:43:08 2025, MaxMem=  4026531840 cpu:              17.2 elap:               1.0
 (Enter /usr/local/intel/g16/l103.exe)

 GradGradGradGradGradGradGradGradGradGradGradGradGradGradGradGradGradGrad
 Berny optimization.
 Initialization pass.
                           ----------------------------
                           !    Initial Parameters    !
                           ! (Angstroms and Degrees)  !
 --------------------------                            --------------------------
 ! Name  Definition              Value          Derivative Info.                !
 --------------------------------------------------------------------------------
 ! R1    R(1,2)                  1.3113         estimate D2E/DX2                !
 ! R2    R(2,3)                  1.4902         estimate D2E/DX2                !
 ! R3    R(2,6)                  1.4902         estimate D2E/DX2                !
 ! R4    R(3,4)                  1.5497         estimate D2E/DX2                !
 ! R5    R(3,8)                  1.5381         estimate D2E/DX2                !
 ! R6    R(3,20)                 1.5391         estimate D2E/DX2                !
 ! R7    R(4,5)                  1.5412         estimate D2E/DX2                !
 ! R8    R(4,10)                 1.0909         estimate D2E/DX2                !
 ! R9    R(4,11)                 1.0957         estimate D2E/DX2                !
 ! R10   R(5,6)                  1.5497         estimate D2E/DX2                !
 ! R11   R(5,12)                 1.0909         estimate D2E/DX2                !
 ! R12   R(5,13)                 1.0957         estimate D2E/DX2                !
 ! R13   R(6,7)                  1.5381         estimate D2E/DX2                !
 ! R14   R(6,9)                  1.5391         estimate D2E/DX2                !
 ! R15   R(7,17)                 1.0931         estimate D2E/DX2                !
 ! R16   R(7,18)                 1.095          estimate D2E/DX2                !
 ! R17   R(7,19)                 1.0941         estimate D2E/DX2                !
 ! R18   R(8,14)                 1.095          estimate D2E/DX2                !
 ! R19   R(8,15)                 1.0941         estimate D2E/DX2                !
 ! R20   R(8,16)                 1.0931         estimate D2E/DX2                !
 ! R21   R(9,26)                 1.4083         estimate D2E/DX2                !
 ! R22   R(9,30)                 1.4043         estimate D2E/DX2                !
 ! R23   R(20,21)                1.4043         estimate D2E/DX2                !
 ! R24   R(20,25)                1.4083         estimate D2E/DX2                !
 ! R25   R(21,22)                1.4038         estimate D2E/DX2                !
 ! R26   R(21,31)                1.0837         estimate D2E/DX2                !
 ! R27   R(22,23)                1.4012         estimate D2E/DX2                !
 ! R28   R(22,32)                1.0852         estimate D2E/DX2                !
 ! R29   R(23,24)                1.4039         estimate D2E/DX2                !
 ! R30   R(23,33)                1.085          estimate D2E/DX2                !
 ! R31   R(24,25)                1.4001         estimate D2E/DX2                !
 ! R32   R(24,34)                1.0852         estimate D2E/DX2                !
 ! R33   R(25,35)                1.087          estimate D2E/DX2                !
 ! R34   R(26,27)                1.4001         estimate D2E/DX2                !
 ! R35   R(26,36)                1.087          estimate D2E/DX2                !
 ! R36   R(27,28)                1.4039         estimate D2E/DX2                !
 ! R37   R(27,37)                1.0852         estimate D2E/DX2                !
 ! R38   R(28,29)                1.4012         estimate D2E/DX2                !
 ! R39   R(28,38)                1.085          estimate D2E/DX2                !
 ! R40   R(29,30)                1.4038         estimate D2E/DX2                !
 ! R41   R(29,39)                1.0852         estimate D2E/DX2                !
 ! R42   R(30,40)                1.0837         estimate D2E/DX2                !
 ! A1    A(1,2,3)              122.4264         estimate D2E/DX2                !
 ! A2    A(1,2,6)              122.4257         estimate D2E/DX2                !
 ! A3    A(3,2,6)              115.1479         estimate D2E/DX2                !
 ! A4    A(2,3,4)              100.472          estimate D2E/DX2                !
 ! A5    A(2,3,8)              109.5021         estimate D2E/DX2                !
 ! A6    A(2,3,20)             110.8414         estimate D2E/DX2                !
 ! A7    A(4,3,8)              113.7174         estimate D2E/DX2                !
 ! A8    A(4,3,20)             111.3908         estimate D2E/DX2                !
 ! A9    A(8,3,20)             110.516          estimate D2E/DX2                !
 ! A10   A(3,4,5)              103.7358         estimate D2E/DX2                !
 ! A11   A(3,4,10)             112.28           estimate D2E/DX2                !
 ! A12   A(3,4,11)             109.6711         estimate D2E/DX2                !
 ! A13   A(5,4,10)             112.3752         estimate D2E/DX2                !
 ! A14   A(5,4,11)             110.1414         estimate D2E/DX2                !
 ! A15   A(10,4,11)            108.5656         estimate D2E/DX2                !
 ! A16   A(4,5,6)              103.7354         estimate D2E/DX2                !
 ! A17   A(4,5,12)             112.3749         estimate D2E/DX2                !
 ! A18   A(4,5,13)             110.1408         estimate D2E/DX2                !
 ! A19   A(6,5,12)             112.2818         estimate D2E/DX2                !
 ! A20   A(6,5,13)             109.6721         estimate D2E/DX2                !
 ! A21   A(12,5,13)            108.5642         estimate D2E/DX2                !
 ! A22   A(2,6,5)              100.4734         estimate D2E/DX2                !
 ! A23   A(2,6,7)              109.5021         estimate D2E/DX2                !
 ! A24   A(2,6,9)              110.838          estimate D2E/DX2                !
 ! A25   A(5,6,7)              113.7174         estimate D2E/DX2                !
 ! A26   A(5,6,9)              111.3928         estimate D2E/DX2                !
 ! A27   A(7,6,9)              110.5158         estimate D2E/DX2                !
 ! A28   A(6,7,17)             109.9213         estimate D2E/DX2                !
 ! A29   A(6,7,18)             110.2224         estimate D2E/DX2                !
 ! A30   A(6,7,19)             110.3611         estimate D2E/DX2                !
 ! A31   A(17,7,18)            108.8395         estimate D2E/DX2                !
 ! A32   A(17,7,19)            108.7466         estimate D2E/DX2                !
 ! A33   A(18,7,19)            108.7098         estimate D2E/DX2                !
 ! A34   A(3,8,14)             110.2221         estimate D2E/DX2                !
 ! A35   A(3,8,15)             110.3607         estimate D2E/DX2                !
 ! A36   A(3,8,16)             109.9212         estimate D2E/DX2                !
 ! A37   A(14,8,15)            108.7101         estimate D2E/DX2                !
 ! A38   A(14,8,16)            108.8399         estimate D2E/DX2                !
 ! A39   A(15,8,16)            108.7465         estimate D2E/DX2                !
 ! A40   A(6,9,26)             118.9782         estimate D2E/DX2                !
 ! A41   A(6,9,30)             122.353          estimate D2E/DX2                !
 ! A42   A(26,9,30)            118.6647         estimate D2E/DX2                !
 ! A43   A(3,20,21)            122.3548         estimate D2E/DX2                !
 ! A44   A(3,20,25)            118.976          estimate D2E/DX2                !
 ! A45   A(21,20,25)           118.665          estimate D2E/DX2                !
 ! A46   A(20,21,22)           120.4848         estimate D2E/DX2                !
 ! A47   A(20,21,31)           119.8912         estimate D2E/DX2                !
 ! A48   A(22,21,31)           119.6138         estimate D2E/DX2                !
 ! A49   A(21,22,23)           120.4956         estimate D2E/DX2                !
 ! A50   A(21,22,32)           119.5175         estimate D2E/DX2                !
 ! A51   A(23,22,32)           119.9855         estimate D2E/DX2                !
 ! A52   A(22,23,24)           119.3519         estimate D2E/DX2                !
 ! A53   A(22,23,33)           120.3628         estimate D2E/DX2                !
 ! A54   A(24,23,33)           120.2847         estimate D2E/DX2                !
 ! A55   A(23,24,25)           120.0658         estimate D2E/DX2                !
 ! A56   A(23,24,34)           120.1015         estimate D2E/DX2                !
 ! A57   A(25,24,34)           119.8327         estimate D2E/DX2                !
 ! A58   A(20,25,24)           120.9327         estimate D2E/DX2                !
 ! A59   A(20,25,35)           119.9597         estimate D2E/DX2                !
 ! A60   A(24,25,35)           119.1076         estimate D2E/DX2                !
 ! A61   A(9,26,27)            120.933          estimate D2E/DX2                !
 ! A62   A(9,26,36)            119.9603         estimate D2E/DX2                !
 ! A63   A(27,26,36)           119.1067         estimate D2E/DX2                !
 ! A64   A(26,27,28)           120.0656         estimate D2E/DX2                !
 ! A65   A(26,27,37)           119.8328         estimate D2E/DX2                !
 ! A66   A(28,27,37)           120.1016         estimate D2E/DX2                !
 ! A67   A(27,28,29)           119.3519         estimate D2E/DX2                !
 ! A68   A(27,28,38)           120.2843         estimate D2E/DX2                !
 ! A69   A(29,28,38)           120.3632         estimate D2E/DX2                !
 ! A70   A(28,29,30)           120.4958         estimate D2E/DX2                !
 ! A71   A(28,29,39)           119.9859         estimate D2E/DX2                !
 ! A72   A(30,29,39)           119.517          estimate D2E/DX2                !
 ! A73   A(9,30,29)            120.4849         estimate D2E/DX2                !
 ! A74   A(9,30,40)            119.8903         estimate D2E/DX2                !
 ! A75   A(29,30,40)           119.6146         estimate D2E/DX2                !
 ! D1    D(1,2,3,4)           -167.5947         estimate D2E/DX2                !
 ! D2    D(1,2,3,8)            -47.6348         estimate D2E/DX2                !
 ! D3    D(1,2,3,20)            74.5501         estimate D2E/DX2                !
 ! D4    D(6,2,3,4)             12.4154         estimate D2E/DX2                !
 ! D5    D(6,2,3,8)            132.3753         estimate D2E/DX2                !
 ! D6    D(6,2,3,20)          -105.4397         estimate D2E/DX2                !
 ! D7    D(1,2,6,5)           -167.5847         estimate D2E/DX2                !
 ! D8    D(1,2,6,7)            -47.6241         estimate D2E/DX2                !
 ! D9    D(1,2,6,9)             74.5585         estimate D2E/DX2                !
 ! D10   D(3,2,6,5)             12.4052         estimate D2E/DX2                !
 ! D11   D(3,2,6,7)            132.3658         estimate D2E/DX2                !
 ! D12   D(3,2,6,9)           -105.4516         estimate D2E/DX2                !
 ! D13   D(2,3,4,5)            -32.3244         estimate D2E/DX2                !
 ! D14   D(2,3,4,10)          -153.9015         estimate D2E/DX2                !
 ! D15   D(2,3,4,11)            85.3099         estimate D2E/DX2                !
 ! D16   D(8,3,4,5)           -149.1976         estimate D2E/DX2                !
 ! D17   D(8,3,4,10)            89.2253         estimate D2E/DX2                !
 ! D18   D(8,3,4,11)           -31.5633         estimate D2E/DX2                !
 ! D19   D(20,3,4,5)            85.1258         estimate D2E/DX2                !
 ! D20   D(20,3,4,10)          -36.4514         estimate D2E/DX2                !
 ! D21   D(20,3,4,11)         -157.2399         estimate D2E/DX2                !
 ! D22   D(2,3,8,14)           -57.8583         estimate D2E/DX2                !
 ! D23   D(2,3,8,15)          -177.9471         estimate D2E/DX2                !
 ! D24   D(2,3,8,16)            62.1114         estimate D2E/DX2                !
 ! D25   D(4,3,8,14)            53.6231         estimate D2E/DX2                !
 ! D26   D(4,3,8,15)           -66.4657         estimate D2E/DX2                !
 ! D27   D(4,3,8,16)           173.5928         estimate D2E/DX2                !
 ! D28   D(20,3,8,14)          179.7624         estimate D2E/DX2                !
 ! D29   D(20,3,8,15)           59.6736         estimate D2E/DX2                !
 ! D30   D(20,3,8,16)          -60.2679         estimate D2E/DX2                !
 ! D31   D(2,3,20,21)           -8.9724         estimate D2E/DX2                !
 ! D32   D(2,3,20,25)          171.779          estimate D2E/DX2                !
 ! D33   D(4,3,20,21)         -119.9491         estimate D2E/DX2                !
 ! D34   D(4,3,20,25)           60.8023         estimate D2E/DX2                !
 ! D35   D(8,3,20,21)          112.6191         estimate D2E/DX2                !
 ! D36   D(8,3,20,25)          -66.6295         estimate D2E/DX2                !
 ! D37   D(3,4,5,6)             41.5991         estimate D2E/DX2                !
 ! D38   D(3,4,5,12)           163.1143         estimate D2E/DX2                !
 ! D39   D(3,4,5,13)           -75.7083         estimate D2E/DX2                !
 ! D40   D(10,4,5,6)           163.1125         estimate D2E/DX2                !
 ! D41   D(10,4,5,12)          -75.3723         estimate D2E/DX2                !
 ! D42   D(10,4,5,13)           45.8051         estimate D2E/DX2                !
 ! D43   D(11,4,5,6)           -75.7076         estimate D2E/DX2                !
 ! D44   D(11,4,5,12)           45.8076         estimate D2E/DX2                !
 ! D45   D(11,4,5,13)          166.985          estimate D2E/DX2                !
 ! D46   D(4,5,6,2)            -32.3185         estimate D2E/DX2                !
 ! D47   D(4,5,6,7)           -149.1925         estimate D2E/DX2                !
 ! D48   D(4,5,6,9)             85.1294         estimate D2E/DX2                !
 ! D49   D(12,5,6,2)          -153.8959         estimate D2E/DX2                !
 ! D50   D(12,5,6,7)            89.23           estimate D2E/DX2                !
 ! D51   D(12,5,6,9)           -36.4481         estimate D2E/DX2                !
 ! D52   D(13,5,6,2)            85.3154         estimate D2E/DX2                !
 ! D53   D(13,5,6,7)           -31.5586         estimate D2E/DX2                !
 ! D54   D(13,5,6,9)          -157.2368         estimate D2E/DX2                !
 ! D55   D(2,6,7,17)            62.1107         estimate D2E/DX2                !
 ! D56   D(2,6,7,18)           -57.8587         estimate D2E/DX2                !
 ! D57   D(2,6,7,19)          -177.9475         estimate D2E/DX2                !
 ! D58   D(5,6,7,17)           173.5937         estimate D2E/DX2                !
 ! D59   D(5,6,7,18)            53.6243         estimate D2E/DX2                !
 ! D60   D(5,6,7,19)           -66.4645         estimate D2E/DX2                !
 ! D61   D(9,6,7,17)           -60.2644         estimate D2E/DX2                !
 ! D62   D(9,6,7,18)           179.7662         estimate D2E/DX2                !
 ! D63   D(9,6,7,19)            59.6775         estimate D2E/DX2                !
 ! D64   D(2,6,9,26)           171.7753         estimate D2E/DX2                !
 ! D65   D(2,6,9,30)            -8.973          estimate D2E/DX2                !
 ! D66   D(5,6,9,26)            60.7977         estimate D2E/DX2                !
 ! D67   D(5,6,9,30)          -119.9506         estimate D2E/DX2                !
 ! D68   D(7,6,9,26)           -66.6355         estimate D2E/DX2                !
 ! D69   D(7,6,9,30)           112.6162         estimate D2E/DX2                !
 ! D70   D(6,9,26,27)          179.9111         estimate D2E/DX2                !
 ! D71   D(6,9,26,36)           -0.0642         estimate D2E/DX2                !
 ! D72   D(30,9,26,27)           0.6316         estimate D2E/DX2                !
 ! D73   D(30,9,26,36)        -179.3438         estimate D2E/DX2                !
 ! D74   D(6,9,30,29)         -179.9922         estimate D2E/DX2                !
 ! D75   D(6,9,30,40)           -1.1542         estimate D2E/DX2                !
 ! D76   D(26,9,30,29)          -0.7383         estimate D2E/DX2                !
 ! D77   D(26,9,30,40)         178.0997         estimate D2E/DX2                !
 ! D78   D(3,20,21,22)        -179.9915         estimate D2E/DX2                !
 ! D79   D(3,20,21,31)          -1.155          estimate D2E/DX2                !
 ! D80   D(25,20,21,22)         -0.7407         estimate D2E/DX2                !
 ! D81   D(25,20,21,31)        178.0959         estimate D2E/DX2                !
 ! D82   D(3,20,25,24)         179.9104         estimate D2E/DX2                !
 ! D83   D(3,20,25,35)          -0.0652         estimate D2E/DX2                !
 ! D84   D(21,20,25,24)          0.6338         estimate D2E/DX2                !
 ! D85   D(21,20,25,35)       -179.3417         estimate D2E/DX2                !
 ! D86   D(20,21,22,23)          0.3483         estimate D2E/DX2                !
 ! D87   D(20,21,22,32)        179.9212         estimate D2E/DX2                !
 ! D88   D(31,21,22,23)       -178.4915         estimate D2E/DX2                !
 ! D89   D(31,21,22,32)          1.0814         estimate D2E/DX2                !
 ! D90   D(21,22,23,24)          0.1678         estimate D2E/DX2                !
 ! D91   D(21,22,23,33)        179.9093         estimate D2E/DX2                !
 ! D92   D(32,22,23,24)       -179.4032         estimate D2E/DX2                !
 ! D93   D(32,22,23,33)          0.3384         estimate D2E/DX2                !
 ! D94   D(22,23,24,25)         -0.2763         estimate D2E/DX2                !
 ! D95   D(22,23,24,34)        179.6695         estimate D2E/DX2                !
 ! D96   D(33,23,24,25)        179.982          estimate D2E/DX2                !
 ! D97   D(33,23,24,34)         -0.0723         estimate D2E/DX2                !
 ! D98   D(23,24,25,20)         -0.1286         estimate D2E/DX2                !
 ! D99   D(23,24,25,35)        179.8471         estimate D2E/DX2                !
 ! D100  D(34,24,25,20)        179.9254         estimate D2E/DX2                !
 ! D101  D(34,24,25,35)         -0.0988         estimate D2E/DX2                !
 ! D102  D(9,26,27,28)          -0.1279         estimate D2E/DX2                !
 ! D103  D(9,26,27,37)         179.9265         estimate D2E/DX2                !
 ! D104  D(36,26,27,28)        179.8476         estimate D2E/DX2                !
 ! D105  D(36,26,27,37)         -0.0979         estimate D2E/DX2                !
 ! D106  D(26,27,28,29)         -0.2755         estimate D2E/DX2                !
 ! D107  D(26,27,28,38)        179.9811         estimate D2E/DX2                !
 ! D108  D(37,27,28,29)        179.67           estimate D2E/DX2                !
 ! D109  D(37,27,28,38)         -0.0735         estimate D2E/DX2                !
 ! D110  D(27,28,29,30)          0.1671         estimate D2E/DX2                !
 ! D111  D(27,28,29,39)       -179.4056         estimate D2E/DX2                !
 ! D112  D(38,28,29,30)        179.9103         estimate D2E/DX2                !
 ! D113  D(38,28,29,39)          0.3377         estimate D2E/DX2                !
 ! D114  D(28,29,30,9)           0.3473         estimate D2E/DX2                !
 ! D115  D(28,29,30,40)       -178.4939         estimate D2E/DX2                !
 ! D116  D(39,29,30,9)         179.922          estimate D2E/DX2                !
 ! D117  D(39,29,30,40)          1.0808         estimate D2E/DX2                !
 --------------------------------------------------------------------------------
 Trust Radius=3.00D-01 FncErr=1.00D-07 GrdErr=1.00D-06 EigMax=2.50D+02 EigMin=1.00D-04
 Number of steps in this run=    240 maximum allowed number of steps=    240.
 GradGradGradGradGradGradGradGradGradGradGradGradGradGradGradGradGradGrad

 Leave Link  103 at Tue Jan  7 16:43:08 2025, MaxMem=  4026531840 cpu:               0.2 elap:               0.1
 (Enter /usr/local/intel/g16/l202.exe)
                          Input orientation:                          
 ---------------------------------------------------------------------
 Center     Atomic      Atomic             Coordinates (Angstroms)
 Number     Number       Type             X           Y           Z
 ---------------------------------------------------------------------
      1          8           0        0.000014   -0.000044    2.030880
      2          7           0        0.000046   -0.000092    0.719596
      3          6           0       -0.900948   -0.877765   -0.079436
      4          6           0       -0.271114   -0.721364   -1.486735
      5          6           0        0.271068    0.721324   -1.486736
      6          6           0        0.900926    0.877706   -0.079449
      7          6           0        0.839118    2.312982    0.469999
      8          6           0       -0.839238   -2.313060    0.469936
      9          6           0        2.346629    0.350525   -0.049692
     10          1           0       -0.994529   -0.893145   -2.285062
     11          1           0        0.552903   -1.434103   -1.603326
     12          1           0        0.994443    0.893113   -2.285098
     13          1           0       -0.552958    1.434054   -1.603319
     14          1           0        0.190384   -2.684848    0.442657
     15          1           0       -1.468355   -2.977601   -0.129804
     16          1           0       -1.194013   -2.331755    1.503691
     17          1           0        1.193932    2.331659    1.503734
     18          1           0       -0.190534    2.684687    0.442788
     19          1           0        1.468149    2.977613   -0.129736
     20          6           0       -2.346611   -0.350495   -0.049677
     21          6           0       -2.747535    0.696247    0.796315
     22          6           0       -4.077249    1.146320    0.791464
     23          6           0       -5.025702    0.553006   -0.052229
     24          6           0       -4.634968   -0.501191   -0.893029
     25          6           0       -3.307806   -0.947105   -0.888384
     26          6           0        3.307810    0.947121   -0.888429
     27          6           0        4.634989    0.501247   -0.893056
     28          6           0        5.025749   -0.552905   -0.052217
     29          6           0        4.077305   -1.146226    0.791483
     30          6           0        2.747578   -0.696195    0.796313
     31          1           0       -2.031442    1.148858    1.472164
     32          1           0       -4.370271    1.955475    1.452640
     33          1           0       -6.053179    0.901594   -0.053164
     34          1           0       -5.360747   -0.973071   -1.547450
     35          1           0       -3.022870   -1.766074   -1.543825
     36          1           0        3.022864    1.766052   -1.543911
     37          1           0        5.360757    0.973128   -1.547488
     38          1           0        6.053234   -0.901468   -0.053151
     39          1           0        4.370332   -1.955374    1.452664
     40          1           0        2.031472   -1.148830    1.472138
 ---------------------------------------------------------------------
                    Distance matrix (angstroms):
                    1          2          3          4          5
     1  O    0.000000
     2  N    1.311284   0.000000
     3  C    2.456738   1.490152   0.000000
     4  C    3.601032   2.337019   1.549723   0.000000
     5  C    3.601037   2.337048   2.431296   1.541204   0.000000
     6  C    2.456741   1.490163   2.515637   2.431287   1.549720
     7  C    2.913852   2.473187   3.675673   3.777390   2.585511
     8  C    2.913921   2.473166   1.538080   2.585502   3.777411
     9  C    3.155674   2.494231   3.472224   3.172793   2.551576
    10  H    4.518197   3.288570   2.207664   1.090946   2.201266
    11  H    3.945841   2.785320   2.178402   1.095716   2.176899
    12  H    4.518217   3.288590   3.404917   2.201262   1.090947
    13  H    3.945861   2.785412   2.790667   2.176891   1.095716
    14  H    3.125198   2.705705   2.174658   2.791201   3.915492
    15  H    3.961125   3.426841   2.175730   2.892275   4.306844
    16  H    2.672172   2.734453   2.169393   3.519623   4.517788
    17  H    2.672108   2.734465   4.146728   4.517766   3.519626
    18  H    3.125080   2.705731   3.669941   3.915448   2.791224
    19  H    3.961076   3.426867   4.525383   4.306845   2.892281
    20  C    3.155659   2.494266   1.539104   2.551542   3.172724
    21  C    3.091601   2.835485   2.579600   3.654395   3.784827
    22  C    4.412978   4.236008   3.865783   4.813013   4.927340
    23  C    5.468366   5.114663   4.365941   5.127176   5.490165
    24  C    5.503040   4.933053   3.840136   4.409556   5.090798
    25  C    4.512283   3.797936   2.540112   3.103302   3.993748
    26  C    4.512317   3.797928   4.658146   3.993809   3.103346
    27  C    5.503062   4.933020   5.762834   5.090882   4.409614
    28  C    5.468360   5.114586   5.935656   5.490262   5.127231
    29  C    4.412951   4.235898   5.060985   4.927427   4.813052
    30  C    3.091584   2.835380   3.756547   3.784897   3.654419
    31  H    2.399782   2.452221   2.791537   3.918108   3.773517
    32  H    4.822635   4.843683   4.733995   5.710384   5.630727
    33  H    6.465086   6.168608   5.450898   6.174253   6.487197
    34  H    6.518358   5.901211   4.696164   5.096215   5.881496
    35  H    5.003519   4.168907   2.726918   2.943950   4.128006
    36  H    5.003584   4.168952   4.952853   4.128050   2.943995
    37  H    6.518385   5.901191   6.692528   5.881578   5.096276
    38  H    6.465077   6.168525   6.954272   6.487294   6.174307
    39  H    4.822585   4.843544   5.594190   5.630796   5.710407
    40  H    2.399734   2.452062   3.328655   3.773534   3.918091
                    6          7          8          9         10
     6  C    0.000000
     7  C    1.538093   0.000000
     8  C    3.675729   4.921092   0.000000
     9  C    1.539111   2.528617   4.185027   0.000000
    10  H    3.404907   4.607806   3.103271   4.207960   0.000000
    11  H    2.790660   4.291997   2.647459   2.969197   1.775372
    12  H    2.207684   3.103339   4.607835   2.668304   2.673336
    13  H    2.178413   2.647459   4.291993   3.463437   2.464876
    14  H    3.670048   5.039832   1.095031   3.755701   3.471983
    15  H    4.525419   5.802970   1.094117   5.063294   3.035557
    16  H    4.146775   5.174526   1.093098   4.705717   4.057591
    17  H    2.169401   1.093092   5.174547   2.768887   5.435411
    18  H    2.174672   1.095029   5.039745   3.482534   4.570389
    19  H    2.175748   1.094119   5.803005   2.771232   5.068824
    20  C    3.472155   4.184859   2.528603   4.745306   2.668247
    21  C    3.756482   3.947707   3.578275   5.175496   3.885110
    22  C    5.060916   5.063112   4.749253   6.527407   4.809116
    23  C    5.935578   6.145433   5.100340   7.375111   4.829829
    24  C    5.762759   6.304208   4.421324   7.083737   3.917165
    25  C    4.658083   5.447050   3.131245   5.861730   2.702753
    26  C    2.540149   3.131348   5.447196   1.408288   4.883368
    27  C    3.840170   4.421418   6.304382   2.443475   5.964351
    28  C    4.365954   5.100382   6.145638   2.827344   6.430016
    29  C    3.865774   4.749245   5.063328   2.437843   5.937397
    30  C    2.579583   3.578246   3.947914   1.404317   4.851497
    31  H    3.328635   3.255708   3.796141   4.703285   4.400195
    32  H    5.594140   5.313297   5.626215   7.067504   5.786250
    33  H    6.954196   7.054748   6.147586   8.417866   5.813123
    34  H    6.692455   7.301135   5.129275   7.962338   4.428806
    35  H    4.952792   5.967339   3.020377   5.961874   2.329293
    36  H    2.726982   3.020548   5.967459   2.166495   4.874431
    37  H    4.696204   5.129394   7.301299   3.422864   6.664582
    38  H    5.450911   6.147632   7.054954   3.912342   7.392730
    39  H    4.733972   5.626186   5.313503   3.416082   6.624248
    40  H    2.791488   3.796068   3.255889   2.159480   4.831005
                   11         12         13         14         15
    11  H    0.000000
    12  H    2.464895   0.000000
    13  H    3.073964   1.775356   0.000000
    14  H    2.425248   4.570445   4.658748   0.000000
    15  H    2.939241   5.068835   4.740453   1.778997   0.000000
    16  H    3.675738   5.435443   4.924000   1.779613   1.777832
    17  H    4.923993   4.057642   3.675745   5.224781   6.159907
    18  H    4.658724   3.472070   2.425281   5.383029   5.832855
    19  H    4.740504   3.035642   2.939200   5.832991   6.639852
    20  C    3.463411   4.207887   2.969109   3.482519   2.771180
    21  C    4.603212   4.851419   3.334482   4.493133   3.998894
    22  C    5.816520   5.937290   4.270644   5.745625   4.966064
    23  C    6.121710   6.429893   4.815347   6.159234   5.012576
    24  C    5.318727   5.964244   4.573018   5.462274   4.091767
    25  C    3.956436   4.883294   3.710827   4.126591   2.842875
    26  C    3.710905   2.702826   3.956476   4.968031   6.228219
    27  C    4.573127   3.917259   5.318778   5.629373   7.066523
    28  C    4.815475   4.829923   6.121756   5.307621   6.932428
    29  C    4.270760   4.809188   5.816550   4.194901   5.912449
    30  C    3.334573   3.885161   4.603231   3.258689   4.882274
    31  H    4.775894   4.830984   3.424302   4.549033   4.462178
    32  H    6.713107   6.624157   4.917585   6.584242   5.938054
    33  H    7.176267   7.392603   5.739244   7.217374   6.006217
    34  H    5.931857   6.664474   5.377007   6.140502   4.602019
    35  H    3.591643   4.874378   4.042873   3.887835   2.425648
    36  H    4.042923   2.329350   3.591692   5.637367   6.683786
    37  H    5.377113   4.428902   5.931913   6.638842   8.015913
    38  H    5.739371   5.813216   7.176312   6.148112   7.803237
    39  H    4.917679   5.786309   6.713124   4.361675   6.135097
    40  H    3.424329   4.400203   4.775877   2.609365   4.261386
                   16         17         18         19         20
    16  H    0.000000
    17  H    5.239247   0.000000
    18  H    5.224670   1.779601   0.000000
    19  H    6.159917   1.777829   1.778994   0.000000
    20  C    2.768903   4.705580   3.755465   5.063112   0.000000
    21  C    3.476005   4.325526   3.258394   4.882028   1.404319
    22  C    4.573546   5.449560   4.194604   5.912164   2.437844
    23  C    5.042279   6.653456   5.307349   6.932159   2.827340
    24  C    4.575522   6.909818   5.629140   7.066310   2.443467
    25  C    3.479569   6.061202   4.967828   6.228058   1.408286
    26  C    6.061326   3.479636   4.126704   2.843038   5.861722
    27  C    6.909961   4.575575   5.462377   4.091934   7.083748
    28  C    6.653615   5.042273   6.159273   5.012692   7.375139
    29  C    5.449726   4.573492   5.745601   4.966124   6.527437
    30  C    4.325688   3.475940   4.493089   3.998921   5.175516
    31  H    3.580077   3.435557   2.609086   4.261170   2.159489
    32  H    5.335875   5.577139   4.361393   6.134805   3.416087
    33  H    6.040682   7.549148   6.147845   7.802954   3.912338
    34  H    5.340146   7.949515   6.638625   8.015712   3.422856
    35  H    3.598898   6.622722   5.637201   6.683672   2.166488
    36  H    6.622836   3.599034   3.888032   2.425883   5.961859
    37  H    7.949651   5.340224   6.140640   4.602214   7.962345
    38  H    7.549309   6.040680   7.217417   6.006342   8.417896
    39  H    5.577293   5.335801   6.584187   5.938099   7.067531
    40  H    3.435704   3.579983   4.548926   4.462159   4.703283
                   21         22         23         24         25
    21  C    0.000000
    22  C    1.403826   0.000000
    23  C    2.435280   1.401215   0.000000
    24  C    2.801811   2.421334   1.403905   0.000000
    25  C    2.419240   2.792196   2.429126   1.400079   0.000000
    26  C    6.290350   7.576333   8.384628   8.073745   6.881458
    27  C    7.575860   8.897012   9.697351   9.324000   8.073768
    28  C    7.918607   9.298588  10.112107   9.697376   8.384671
    29  C    7.069170   8.470686   9.298601   8.897042   7.576376
    30  C    5.668788   7.069169   7.918612   7.575875   6.290376
    31  H    1.083706   2.156081   3.412390   3.885247   3.405048
    32  H    2.156314   1.085241   2.158967   3.406969   3.877396
    33  H    3.419220   2.162773   1.084999   2.164371   3.413554
    34  H    3.886995   3.407302   2.162603   1.085216   2.156295
    35  H    3.408092   3.879089   3.407980   2.149959   1.086969
    36  H    6.318120   7.499977   8.275023   8.012891   6.918693
    37  H    8.444790   9.725053  10.501944  10.125041   8.903129
    38  H    8.984866  10.369836  11.174002  10.728620   9.398339
    39  H    7.624036   9.023265   9.840840   9.418723   8.090174
    40  H    5.167200   6.561060   7.417792   7.103159   5.841288
                   26         27         28         29         30
    26  C    0.000000
    27  C    1.400082   0.000000
    28  C    2.429124   1.403902   0.000000
    29  C    2.792191   2.421332   1.401216   0.000000
    30  C    2.419236   2.801813   2.435282   1.403825   0.000000
    31  H    5.841293   7.103166   7.417795   6.561061   5.167207
    32  H    8.090137   9.418693   9.840821   9.023260   7.624034
    33  H    9.398290  10.728589  11.173997  10.369846   8.984869
    34  H    8.903108  10.125047  10.501979   9.725092   8.444810
    35  H    6.918705   8.012930   8.275080   7.500024   6.318145
    36  H    1.086968   2.149951   3.407970   3.879082   3.408092
    37  H    2.156299   1.085215   2.162601   3.407300   3.886997
    38  H    3.413550   2.164363   1.084999   2.162778   3.419223
    39  H    3.877389   3.406968   2.158971   1.085240   2.156307
    40  H    3.405044   3.885254   3.412401   2.156092   1.083709
                   31         32         33         34         35
    31  H    0.000000
    32  H    2.474092   0.000000
    33  H    4.308379   2.492045   0.000000
    34  H    4.970405   4.307896   2.495340   0.000000
    35  H    4.309982   4.964294   4.303637   2.468711   0.000000
    36  H    5.918078   7.979577   9.238191   8.819736   7.001915
    37  H    7.987101  10.230282  11.511562  10.896712   8.819776
    38  H    8.478939  10.912332  12.239946  11.511604   9.238253
    39  H    7.114727   9.575640  10.912349  10.230323   7.979613
    40  H    4.667616   7.114731   8.478937   7.987096   5.918057
                   36         37         38         39         40
    36  H    0.000000
    37  H    2.468701   0.000000
    38  H    4.303623   2.495331   0.000000
    39  H    4.964287   4.307897   2.492059   0.000000
    40  H    4.309982   4.970411   4.308395   2.474098   0.000000
 Stoichiometry    C18H20NO(2)
 Framework group  C1[X(C18H20NO)]
 Deg. of freedom   114
 Full point group                 C1      NOp   1
 Largest Abelian subgroup         C1      NOp   1
 Largest concise Abelian subgroup C1      NOp   1
                         Standard orientation:                         
 ---------------------------------------------------------------------
 Center     Atomic      Atomic             Coordinates (Angstroms)
 Number     Number       Type             X           Y           Z
 ---------------------------------------------------------------------
      1          8           0        0.000014    0.000044   -2.030880
      2          7           0        0.000046    0.000092   -0.719596
      3          6           0       -0.900948    0.877765    0.079436
      4          6           0       -0.271114    0.721364    1.486735
      5          6           0        0.271068   -0.721324    1.486736
      6          6           0        0.900926   -0.877706    0.079449
      7          6           0        0.839118   -2.312982   -0.469999
      8          6           0       -0.839238    2.313060   -0.469936
      9          6           0        2.346629   -0.350525    0.049692
     10          1           0       -0.994529    0.893145    2.285062
     11          1           0        0.552903    1.434103    1.603326
     12          1           0        0.994443   -0.893113    2.285098
     13          1           0       -0.552958   -1.434054    1.603319
     14          1           0        0.190384    2.684848   -0.442657
     15          1           0       -1.468355    2.977601    0.129804
     16          1           0       -1.194013    2.331755   -1.503691
     17          1           0        1.193932   -2.331659   -1.503734
     18          1           0       -0.190534   -2.684687   -0.442788
     19          1           0        1.468149   -2.977613    0.129736
     20          6           0       -2.346611    0.350495    0.049677
     21          6           0       -2.747535   -0.696247   -0.796315
     22          6           0       -4.077249   -1.146320   -0.791464
     23          6           0       -5.025702   -0.553006    0.052229
     24          6           0       -4.634968    0.501191    0.893029
     25          6           0       -3.307806    0.947105    0.888384
     26          6           0        3.307810   -0.947121    0.888429
     27          6           0        4.634989   -0.501247    0.893056
     28          6           0        5.025749    0.552905    0.052217
     29          6           0        4.077305    1.146226   -0.791483
     30          6           0        2.747578    0.696195   -0.796313
     31          1           0       -2.031442   -1.148858   -1.472164
     32          1           0       -4.370271   -1.955475   -1.452640
     33          1           0       -6.053179   -0.901594    0.053164
     34          1           0       -5.360747    0.973071    1.547450
     35          1           0       -3.022870    1.766074    1.543825
     36          1           0        3.022864   -1.766052    1.543911
     37          1           0        5.360757   -0.973128    1.547488
     38          1           0        6.053234    0.901468    0.053151
     39          1           0        4.370332    1.955374   -1.452664
     40          1           0        2.031472    1.148830   -1.472138
 ---------------------------------------------------------------------
 Rotational constants (GHZ):           0.9209440           0.1958210           0.1906036
 Leave Link  202 at Tue Jan  7 16:43:08 2025, MaxMem=  4026531840 cpu:               0.1 elap:               0.2
 (Enter /usr/local/intel/g16/l301.exe)
 Standard basis: def2TZVP (5D, 7F)
 Ernie: Thresh=  0.10000D-02 Tol=  0.10000D-05 Strict=F.
 There are   840 symmetry adapted cartesian basis functions of A   symmetry.
 There are   740 symmetry adapted basis functions of A   symmetry.
   740 basis functions,  1180 primitive gaussians,   840 cartesian basis functions
    72 alpha electrons       71 beta electrons
       nuclear repulsion energy      1543.7833647837 Hartrees.
 IExCor= 4336 DFT=T Ex+Corr=M062X ExCW=0 ScaHFX=  0.540000
 ScaDFX=  1.000000  1.000000  1.000000  1.000000 ScalE2=  1.000000  1.000000
 IRadAn=      5 IRanWt=     -1 IRanGd=            0 ICorTp=0 IEmpDi=  4
 NAtoms=   40 NActive=   40 NUniq=   40 SFac= 1.00D+00 NAtFMM=   60 NAOKFM=F Big=F
 Integral buffers will be    131072 words long.
 Raffenetti 2 integral format.
 Two-electron integral symmetry is turned on.
 Leave Link  301 at Tue Jan  7 16:43:09 2025, MaxMem=  4026531840 cpu:               1.6 elap:               0.3
 (Enter /usr/local/intel/g16/l302.exe)
 NPDir=0 NMtPBC=     1 NCelOv=     1 NCel=       1 NClECP=     1 NCelD=      1
         NCelK=      1 NCelE2=     1 NClLst=     1 CellRange=     0.0.
 One-electron integrals computed using PRISM.
 One-electron integral symmetry used in STVInt
   1 Symmetry operations used in ECPInt.
 ECPInt:  NShTT=   45150 NPrTT=  135960 LenC2=   40526 LenP2D=   88580.
 LDataN:  DoStor=T MaxTD1= 6 Len=  172
 NBasis=   740 RedAO= T EigKep=  8.27D-06  NBF=   740
 NBsUse=   740 1.00D-06 EigRej= -1.00D+00 NBFU=   740
 Precomputing XC quadrature grid using
 IXCGrd= 4 IRadAn=           5 IRanWt=          -1 IRanGd=           0 AccXCQ= 0.00D+00.
 Generated NRdTot=       0 NPtTot=           0 NUsed=           0 NTot=          32
 NSgBfM=   824   824   824   824   824 MxSgAt=    40 MxSgA2=    40.
 Leave Link  302 at Tue Jan  7 16:43:10 2025, MaxMem=  4026531840 cpu:              23.9 elap:               1.2
 (Enter /usr/local/intel/g16/l303.exe)
 DipDrv:  MaxL=1.
 Leave Link  303 at Tue Jan  7 16:43:11 2025, MaxMem=  4026531840 cpu:               4.3 elap:               0.3
 (Enter /usr/local/intel/g16/l401.exe)
 ExpMin= 9.52D-02 ExpMax= 2.70D+04 ExpMxC= 9.22D+02 IAcc=3 IRadAn=         5 AccDes= 0.00D+00
 Harris functional with IExCor= 1009 and IRadAn=       5 diagonalized for initial guess.
 HarFok:  IExCor= 1009 AccDes= 0.00D+00 IRadAn=         5 IDoV= 1 UseB2=F ITyADJ=14
 ICtDFT=  3500011 ScaDFX=  1.000000  1.000000  1.000000  1.000000
 FoFCou: FMM=F IPFlag=           0 FMFlag=      100000 FMFlg1=           0
         NFxFlg=           0 DoJE=T BraDBF=F KetDBF=T FulRan=T
         wScrn=  0.000000 ICntrl=       500 IOpCl=  0 I1Cent=   200000004 NGrid=           0
         NMat0=    1 NMatS0=      1 NMatT0=    0 NMatD0=    1 NMtDS0=    0 NMtDT0=    0
 Petite list used in FoFCou.
 Harris En= -827.463023237076    
 JPrj=0 DoOrth=F DoCkMO=F.
 Initial guess <Sx>= 0.0000 <Sy>= 0.0000 <Sz>= 0.5000 <S**2>= 0.7500 S= 0.5000
 Leave Link  401 at Tue Jan  7 16:43:16 2025, MaxMem=  4026531840 cpu:             101.7 elap:               5.1
 (Enter /usr/local/intel/g16/l502.exe)
 Integral symmetry usage will be decided dynamically.
 UHF open shell SCF:
 Using DIIS extrapolation, IDIIS=  1040.
 NGot=  4026531840 LenX=  4025095434 LenY=  4024388994
 Requested convergence on RMS density matrix=1.00D-08 within 128 cycles.
 Requested convergence on MAX density matrix=1.00D-06.
 Requested convergence on             energy=1.00D-06.
 No special actions if energy rises.
 Fock matrices will be formed incrementally for  20 cycles.
 Integral accuracy reduced to 1.0D-05 until final iterations.

 Cycle   1  Pass 0  IDiag  1:
 FoFJK:  IHMeth= 1 ICntrl=       0 DoSepK=F KAlg= 0 I1Cent=           0 FoldK=F
 IRaf= 840000000 NMat=       1 IRICut=       1 DoRegI=T DoRafI=F ISym2E= 0 IDoP0=0 IntGTp=1.
 FoFCou: FMM=F IPFlag=           0 FMFlag=      100000 FMFlg1=           0
         NFxFlg=           0 DoJE=F BraDBF=F KetDBF=F FulRan=T
         wScrn=  0.000000 ICntrl=         0 IOpCl=  1 I1Cent=           0 NGrid=           0
         NMat0=    1 NMatS0=      1 NMatT0=    0 NMatD0=    1 NMtDS0=    0 NMtDT0=    0
 Symmetry not used in FoFCou.
 E= -827.261973504959    
 DIIS: error= 2.07D-02 at cycle   1 NSaved=   1.
 NSaved= 1 IEnMin= 1 EnMin= -827.261973504959     IErMin= 1 ErrMin= 2.07D-02
 ErrMax= 2.07D-02  0.00D+00 EMaxC= 1.00D-01 BMatC= 2.60D+00 BMatP= 2.60D+00
 IDIUse=3 WtCom= 7.93D-01 WtEn= 2.07D-01
 Coeff-Com:  0.100D+01
 Coeff-En:   0.100D+01
 Coeff:      0.100D+01
 Gap=     0.384 Goal=   None    Shift=    0.000
 Gap=     0.231 Goal=   None    Shift=    0.000
 GapD=    0.231 DampG=1.000 DampE=0.500 DampFc=0.5000 IDamp=-1.
 Damping current iteration by 5.00D-01
 RMSDP=3.57D-03 MaxDP=2.58D-01              OVMax= 1.60D-01

 Cycle   2  Pass 0  IDiag  1:
 RMSU=  1.78D-03    CP:  9.88D-01
 E= -827.539661441838     Delta-E=       -0.277687936879 Rises=F Damp=T
 DIIS: error= 5.06D-03 at cycle   2 NSaved=   2.
 NSaved= 2 IEnMin= 2 EnMin= -827.539661441838     IErMin= 2 ErrMin= 5.06D-03
 ErrMax= 5.06D-03  0.00D+00 EMaxC= 1.00D-01 BMatC= 2.29D-01 BMatP= 2.60D+00
 IDIUse=3 WtCom= 9.49D-01 WtEn= 5.06D-02
 Coeff-Com: -0.821D-01 0.108D+01
 Coeff-En:   0.000D+00 0.100D+01
 Coeff:     -0.779D-01 0.108D+01
 Gap=     0.360 Goal=   None    Shift=    0.000
 Gap=     0.287 Goal=   None    Shift=    0.000
 RMSDP=1.84D-03 MaxDP=7.10D-02 DE=-2.78D-01 OVMax= 1.28D-01

 Cycle   3  Pass 0  IDiag  1:
 RMSU=  1.45D-03    CP:  9.62D-01  1.62D+00
 E= -827.791795660086     Delta-E=       -0.252134218247 Rises=F Damp=F
 DIIS: error= 7.30D-03 at cycle   3 NSaved=   3.
 NSaved= 3 IEnMin= 3 EnMin= -827.791795660086     IErMin= 2 ErrMin= 5.06D-03
 ErrMax= 7.30D-03  0.00D+00 EMaxC= 1.00D-01 BMatC= 1.45D-01 BMatP= 2.29D-01
 IDIUse=3 WtCom= 9.27D-01 WtEn= 7.30D-02
 Coeff-Com: -0.106D+00 0.511D+00 0.596D+00
 Coeff-En:   0.000D+00 0.000D+00 0.100D+01
 Coeff:     -0.985D-01 0.473D+00 0.625D+00
 Gap=     0.291 Goal=   None    Shift=    0.000
 Gap=     0.274 Goal=   None    Shift=    0.000
 RMSDP=7.80D-04 MaxDP=7.13D-02 DE=-2.52D-01 OVMax= 8.94D-02

 Cycle   4  Pass 0  IDiag  1:
 RMSU=  5.38D-04    CP:  9.76D-01  1.93D+00  1.05D+00
 E= -827.811109497339     Delta-E=       -0.019313837254 Rises=F Damp=F
 DIIS: error= 4.09D-03 at cycle   4 NSaved=   4.
 NSaved= 4 IEnMin= 4 EnMin= -827.811109497339     IErMin= 4 ErrMin= 4.09D-03
 ErrMax= 4.09D-03  0.00D+00 EMaxC= 1.00D-01 BMatC= 4.39D-02 BMatP= 1.45D-01
 IDIUse=3 WtCom= 9.59D-01 WtEn= 4.09D-02
 Coeff-Com: -0.386D-01 0.111D+00 0.383D+00 0.544D+00
 Coeff-En:   0.000D+00 0.000D+00 0.250D+00 0.750D+00
 Coeff:     -0.371D-01 0.107D+00 0.378D+00 0.553D+00
 Gap=     0.286 Goal=   None    Shift=    0.000
 Gap=     0.273 Goal=   None    Shift=    0.000
 RMSDP=2.67D-04 MaxDP=1.55D-02 DE=-1.93D-02 OVMax= 2.39D-02

 Cycle   5  Pass 0  IDiag  1:
 RMSU=  2.12D-04    CP:  9.69D-01  1.87D+00  1.09D+00  8.10D-01
 E= -827.819412138684     Delta-E=       -0.008302641345 Rises=F Damp=F
 DIIS: error= 4.95D-04 at cycle   5 NSaved=   5.
 NSaved= 5 IEnMin= 5 EnMin= -827.819412138684     IErMin= 5 ErrMin= 4.95D-04
 ErrMax= 4.95D-04  0.00D+00 EMaxC= 1.00D-01 BMatC= 6.90D-04 BMatP= 4.39D-02
 IDIUse=3 WtCom= 9.95D-01 WtEn= 4.95D-03
 Coeff-Com: -0.721D-02 0.121D-01 0.109D+00 0.191D+00 0.696D+00
 Coeff-En:   0.000D+00 0.000D+00 0.000D+00 0.000D+00 0.100D+01
 Coeff:     -0.718D-02 0.120D-01 0.108D+00 0.190D+00 0.697D+00
 Gap=     0.280 Goal=   None    Shift=    0.000
 Gap=     0.278 Goal=   None    Shift=    0.000
 RMSDP=1.45D-04 MaxDP=1.16D-02 DE=-8.30D-03 OVMax= 8.57D-03

 Cycle   6  Pass 0  IDiag  1:
 RMSU=  1.06D-04    CP:  9.70D-01  1.90D+00  1.13D+00  9.05D-01  1.04D+00
 E= -827.819587636953     Delta-E=       -0.000175498268 Rises=F Damp=F
 DIIS: error= 2.28D-04 at cycle   6 NSaved=   6.
 NSaved= 6 IEnMin= 6 EnMin= -827.819587636953     IErMin= 6 ErrMin= 2.28D-04
 ErrMax= 2.28D-04  0.00D+00 EMaxC= 1.00D-01 BMatC= 1.59D-04 BMatP= 6.90D-04
 IDIUse=3 WtCom= 9.98D-01 WtEn= 2.28D-03
 Coeff-Com:  0.214D-02-0.864D-02 0.307D-02 0.467D-02 0.283D+00 0.716D+00
 Coeff-En:   0.000D+00 0.000D+00 0.000D+00 0.000D+00 0.000D+00 0.100D+01
 Coeff:      0.214D-02-0.862D-02 0.306D-02 0.466D-02 0.283D+00 0.716D+00
 Gap=     0.283 Goal=   None    Shift=    0.000
 Gap=     0.278 Goal=   None    Shift=    0.000
 RMSDP=9.35D-05 MaxDP=5.30D-03 DE=-1.75D-04 OVMax= 2.84D-03

 Cycle   7  Pass 0  IDiag  1:
 RMSU=  6.04D-05    CP:  9.69D-01  1.88D+00  1.12D+00  8.73D-01  1.24D+00
                    CP:  1.18D+00
 E= -827.819638352458     Delta-E=       -0.000050715505 Rises=F Damp=F
 DIIS: error= 1.22D-04 at cycle   7 NSaved=   7.
 NSaved= 7 IEnMin= 7 EnMin= -827.819638352458     IErMin= 7 ErrMin= 1.22D-04
 ErrMax= 1.22D-04  0.00D+00 EMaxC= 1.00D-01 BMatC= 3.29D-05 BMatP= 1.59D-04
 IDIUse=3 WtCom= 9.99D-01 WtEn= 1.22D-03
 Coeff-Com:  0.265D-02-0.600D-02-0.216D-01-0.506D-01-0.750D-01 0.209D+00
 Coeff-Com:  0.941D+00
 Coeff-En:   0.000D+00 0.000D+00 0.000D+00 0.000D+00 0.000D+00 0.000D+00
 Coeff-En:   0.100D+01
 Coeff:      0.264D-02-0.599D-02-0.215D-01-0.506D-01-0.749D-01 0.209D+00
 Coeff:      0.941D+00
 Gap=     0.283 Goal=   None    Shift=    0.000
 Gap=     0.278 Goal=   None    Shift=    0.000
 RMSDP=1.73D-04 MaxDP=9.14D-03 DE=-5.07D-05 OVMax= 3.28D-03

 Cycle   8  Pass 0  IDiag  1:
 RMSU=  5.81D-05    CP:  9.68D-01  1.82D+00  1.08D+00  7.56D-01  1.28D+00
                    CP:  1.33D+00  2.50D+00
 E= -827.819653608771     Delta-E=       -0.000015256314 Rises=F Damp=F
 DIIS: error= 6.14D-05 at cycle   8 NSaved=   8.
 NSaved= 8 IEnMin= 8 EnMin= -827.819653608771     IErMin= 8 ErrMin= 6.14D-05
 ErrMax= 6.14D-05  0.00D+00 EMaxC= 1.00D-01 BMatC= 1.06D-05 BMatP= 3.29D-05
 IDIUse=1 WtCom= 1.00D+00 WtEn= 0.00D+00
 Coeff-Com:  0.102D-02-0.168D-02-0.978D-02-0.278D-01-0.773D-01-0.143D-01
 Coeff-Com:  0.463D+00 0.667D+00
 Coeff:      0.102D-02-0.168D-02-0.978D-02-0.278D-01-0.773D-01-0.143D-01
 Coeff:      0.463D+00 0.667D+00
 Gap=     0.283 Goal=   None    Shift=    0.000
 Gap=     0.278 Goal=   None    Shift=    0.000
 RMSDP=2.08D-04 MaxDP=1.17D-02 DE=-1.53D-05 OVMax= 1.29D-03

 Cycle   9  Pass 0  IDiag  1:
 RMSU=  5.88D-05    CP:  9.67D-01  1.75D+00  1.02D+00  5.99D-01  1.22D+00
                    CP:  1.18D+00  3.00D+00  2.36D+00
 E= -827.819648075219     Delta-E=        0.000005533552 Rises=F Damp=F
 DIIS: error= 7.94D-05 at cycle   9 NSaved=   9.
 NSaved= 9 IEnMin= 8 EnMin= -827.819653608771     IErMin= 8 ErrMin= 6.14D-05
 ErrMax= 7.94D-05  0.00D+00 EMaxC= 1.00D-01 BMatC= 3.99D-06 BMatP= 1.06D-05
 IDIUse=1 WtCom= 1.00D+00 WtEn= 0.00D+00
 Coeff-Com:  0.193D-03-0.177D-03-0.123D-02-0.740D-02-0.208D-01-0.301D-01
 Coeff-Com:  0.804D-01 0.324D+00 0.655D+00
 Coeff:      0.193D-03-0.177D-03-0.123D-02-0.740D-02-0.208D-01-0.301D-01
 Coeff:      0.804D-01 0.324D+00 0.655D+00
 Gap=     0.283 Goal=   None    Shift=    0.000
 Gap=     0.278 Goal=   None    Shift=    0.000
 RMSDP=2.13D-04 MaxDP=1.22D-02 DE= 5.53D-06 OVMax= 4.95D-04

 Cycle  10  Pass 0  IDiag  1:
 RMSU=  5.86D-05    CP:  9.66D-01  1.69D+00  9.56D-01  4.50D-01  1.15D+00
                    CP:  7.27D-01  3.00D+00  3.00D+00  2.40D+00
 E= -827.819637289126     Delta-E=        0.000010786093 Rises=F Damp=F
 DIIS: error= 8.65D-05 at cycle  10 NSaved=  10.
 NSaved=10 IEnMin= 8 EnMin= -827.819653608771     IErMin= 8 ErrMin= 6.14D-05
 ErrMax= 8.65D-05  0.00D+00 EMaxC= 1.00D-01 BMatC= 4.33D-06 BMatP= 3.99D-06
 IDIUse=1 WtCom= 1.00D+00 WtEn= 0.00D+00
 Coeff-Com:  0.919D-04 0.664D-04-0.297D-03-0.572D-02-0.182D-01-0.401D-01
 Coeff-Com:  0.450D-01 0.344D+00 0.889D+00-0.213D+00
 Coeff:      0.919D-04 0.664D-04-0.297D-03-0.572D-02-0.182D-01-0.401D-01
 Coeff:      0.450D-01 0.344D+00 0.889D+00-0.213D+00
 Gap=     0.283 Goal=   None    Shift=    0.000
 Gap=     0.278 Goal=   None    Shift=    0.000
 RMSDP=3.21D-05 MaxDP=2.14D-03 DE= 1.08D-05 OVMax= 2.68D-05

 Cycle  11  Pass 0  IDiag  1:
 RMSU=  1.15D-05    CP:  9.66D-01  1.69D+00  9.65D-01  4.59D-01  1.15D+00
                    CP:  8.49D-01  3.00D+00  3.00D+00  2.26D+00  6.34D-01
 E= -827.819640630951     Delta-E=       -0.000003341826 Rises=F Damp=F
 DIIS: error= 9.68D-05 at cycle  11 NSaved=  11.
 NSaved=11 IEnMin= 8 EnMin= -827.819653608771     IErMin= 8 ErrMin= 6.14D-05
 ErrMax= 9.68D-05  0.00D+00 EMaxC= 1.00D-01 BMatC= 4.23D-06 BMatP= 3.99D-06
 IDIUse=1 WtCom= 1.00D+00 WtEn= 0.00D+00
 Coeff-Com:  0.876D-04 0.832D-04-0.282D-03-0.575D-02-0.186D-01-0.414D-01
 Coeff-Com:  0.448D-01 0.350D+00 0.907D+00-0.404D-01-0.196D+00
 Coeff:      0.876D-04 0.832D-04-0.282D-03-0.575D-02-0.186D-01-0.414D-01
 Coeff:      0.448D-01 0.350D+00 0.907D+00-0.404D-01-0.196D+00
 Gap=     0.283 Goal=   None    Shift=    0.000
 Gap=     0.278 Goal=   None    Shift=    0.000
 RMSDP=9.79D-06 MaxDP=5.55D-04 DE=-3.34D-06 OVMax= 7.78D-06

 Initial convergence to 1.0D-05 achieved.  Increase integral accuracy.
 Cycle  12  Pass 1  IDiag  1:
 E= -827.819276030430     Delta-E=        0.000364600522 Rises=F Damp=F
 DIIS: error= 7.98D-04 at cycle   1 NSaved=   1.
 NSaved= 1 IEnMin= 1 EnMin= -827.819276030430     IErMin= 1 ErrMin= 7.98D-04
 ErrMax= 7.98D-04  0.00D+00 EMaxC= 1.00D-01 BMatC= 5.87D-04 BMatP= 5.87D-04
 IDIUse=3 WtCom= 9.92D-01 WtEn= 7.98D-03
 Coeff-Com:  0.100D+01
 Coeff-En:   0.100D+01
 Coeff:      0.100D+01
 Gap=     0.283 Goal=   None    Shift=    0.000
 Gap=     0.278 Goal=   None    Shift=    0.000
 RMSDP=9.79D-06 MaxDP=5.55D-04 DE= 3.65D-04 OVMax= 1.79D-03

 Cycle  13  Pass 1  IDiag  1:
 RMSU=  2.30D-03    CP:  8.22D-01
 E= -827.819386875921     Delta-E=       -0.000110845491 Rises=F Damp=F
 DIIS: error= 2.87D-05 at cycle   2 NSaved=   2.
 NSaved= 2 IEnMin= 2 EnMin= -827.819386875921     IErMin= 2 ErrMin= 2.87D-05
 ErrMax= 2.87D-05  0.00D+00 EMaxC= 1.00D-01 BMatC= 9.12D-07 BMatP= 5.87D-04
 IDIUse=1 WtCom= 1.00D+00 WtEn= 0.00D+00
 Coeff-Com: -0.181D-01 0.102D+01
 Coeff:     -0.181D-01 0.102D+01
 Gap=     0.283 Goal=   None    Shift=    0.000
 Gap=     0.278 Goal=   None    Shift=    0.000
 RMSDP=7.00D-05 MaxDP=2.98D-03 DE=-1.11D-04 OVMax= 5.36D-04

 Cycle  14  Pass 1  IDiag  1:
 RMSU=  3.63D-05    CP:  8.18D-01  1.02D+00
 E= -827.819386914560     Delta-E=       -0.000000038639 Rises=F Damp=F
 DIIS: error= 3.07D-05 at cycle   3 NSaved=   3.
 NSaved= 3 IEnMin= 3 EnMin= -827.819386914560     IErMin= 2 ErrMin= 2.87D-05
 ErrMax= 3.07D-05  0.00D+00 EMaxC= 1.00D-01 BMatC= 1.84D-06 BMatP= 9.12D-07
 IDIUse=1 WtCom= 1.00D+00 WtEn= 0.00D+00
 Coeff-Com: -0.126D-01 0.643D+00 0.369D+00
 Coeff:     -0.126D-01 0.643D+00 0.369D+00
 Gap=     0.283 Goal=   None    Shift=    0.000
 Gap=     0.278 Goal=   None    Shift=    0.000
 RMSDP=1.56D-06 MaxDP=1.39D-04 DE=-3.86D-08 OVMax= 1.35D-04

 Cycle  15  Pass 1  IDiag  1:
 RMSU=  1.21D-06    CP:  8.18D-01  1.02D+00  1.01D+00
 E= -827.819387242291     Delta-E=       -0.000000327731 Rises=F Damp=F
 DIIS: error= 4.09D-06 at cycle   4 NSaved=   4.
 NSaved= 4 IEnMin= 4 EnMin= -827.819387242291     IErMin= 4 ErrMin= 4.09D-06
 ErrMax= 4.09D-06  0.00D+00 EMaxC= 1.00D-01 BMatC= 2.81D-08 BMatP= 9.12D-07
 IDIUse=1 WtCom= 1.00D+00 WtEn= 0.00D+00
 Coeff-Com:  0.121D-02-0.768D-01-0.562D-01 0.113D+01
 Coeff:      0.121D-02-0.768D-01-0.562D-01 0.113D+01
 Gap=     0.283 Goal=   None    Shift=    0.000
 Gap=     0.278 Goal=   None    Shift=    0.000
 RMSDP=1.89D-06 MaxDP=1.17D-04 DE=-3.28D-07 OVMax= 1.51D-04

 Cycle  16  Pass 1  IDiag  1:
 RMSU=  8.34D-07    CP:  8.18D-01  1.02D+00  1.04D+00  1.54D+00
 E= -827.819387268560     Delta-E=       -0.000000026269 Rises=F Damp=F
 DIIS: error= 4.17D-06 at cycle   5 NSaved=   5.
 NSaved= 5 IEnMin= 5 EnMin= -827.819387268560     IErMin= 4 ErrMin= 4.09D-06
 ErrMax= 4.17D-06  0.00D+00 EMaxC= 1.00D-01 BMatC= 2.49D-08 BMatP= 2.81D-08
 IDIUse=1 WtCom= 1.00D+00 WtEn= 0.00D+00
 Coeff-Com:  0.238D-02-0.127D+00-0.121D+00 0.508D+00 0.739D+00
 Coeff:      0.238D-02-0.127D+00-0.121D+00 0.508D+00 0.739D+00
 Gap=     0.283 Goal=   None    Shift=    0.000
 Gap=     0.278 Goal=   None    Shift=    0.000
 RMSDP=4.45D-07 MaxDP=4.35D-05 DE=-2.63D-08 OVMax= 6.07D-05

 Cycle  17  Pass 1  IDiag  1:
 RMSU=  2.12D-07    CP:  8.18D-01  1.02D+00  1.04D+00  1.77D+00  1.23D+00
 E= -827.819387279249     Delta-E=       -0.000000010689 Rises=F Damp=F
 DIIS: error= 2.00D-06 at cycle   6 NSaved=   6.
 NSaved= 6 IEnMin= 6 EnMin= -827.819387279249     IErMin= 6 ErrMin= 2.00D-06
 ErrMax= 2.00D-06  0.00D+00 EMaxC= 1.00D-01 BMatC= 5.22D-09 BMatP= 2.49D-08
 IDIUse=1 WtCom= 1.00D+00 WtEn= 0.00D+00
 Coeff-Com: -0.126D-03 0.126D-01-0.376D-01-0.398D+00 0.116D+00 0.131D+01
 Coeff:     -0.126D-03 0.126D-01-0.376D-01-0.398D+00 0.116D+00 0.131D+01
 Gap=     0.283 Goal=   None    Shift=    0.000
 Gap=     0.278 Goal=   None    Shift=    0.000
 RMSDP=4.73D-07 MaxDP=2.87D-05 DE=-1.07D-08 OVMax= 8.00D-05

 Cycle  18  Pass 1  IDiag  1:
 RMSU=  1.67D-07    CP:  8.18D-01  1.02D+00  1.04D+00  1.91D+00  1.32D+00
                    CP:  2.51D+00
 E= -827.819387283355     Delta-E=       -0.000000004106 Rises=F Damp=F
 DIIS: error= 6.19D-07 at cycle   7 NSaved=   7.
 NSaved= 7 IEnMin= 7 EnMin= -827.819387283355     IErMin= 7 ErrMin= 6.19D-07
 ErrMax= 6.19D-07  0.00D+00 EMaxC= 1.00D-01 BMatC= 8.33D-10 BMatP= 5.22D-09
 IDIUse=1 WtCom= 1.00D+00 WtEn= 0.00D+00
 Coeff-Com: -0.227D-03 0.154D-01-0.148D-01-0.248D+00 0.972D-02 0.723D+00
 Coeff-Com:  0.515D+00
 Coeff:     -0.227D-03 0.154D-01-0.148D-01-0.248D+00 0.972D-02 0.723D+00
 Coeff:      0.515D+00
 Gap=     0.283 Goal=   None    Shift=    0.000
 Gap=     0.278 Goal=   None    Shift=    0.000
 RMSDP=6.08D-08 MaxDP=3.61D-06 DE=-4.11D-09 OVMax= 5.79D-06

 Cycle  19  Pass 1  IDiag  1:
 RMSU=  2.83D-08    CP:  8.18D-01  1.02D+00  1.04D+00  1.92D+00  1.31D+00
                    CP:  2.69D+00  1.07D+00
 E= -827.819387283608     Delta-E=       -0.000000000253 Rises=F Damp=F
 DIIS: error= 1.20D-07 at cycle   8 NSaved=   8.
 NSaved= 8 IEnMin= 8 EnMin= -827.819387283608     IErMin= 8 ErrMin= 1.20D-07
 ErrMax= 1.20D-07  0.00D+00 EMaxC= 1.00D-01 BMatC= 3.17D-11 BMatP= 8.33D-10
 IDIUse=1 WtCom= 1.00D+00 WtEn= 0.00D+00
 Coeff-Com: -0.537D-04 0.323D-02-0.913D-03-0.318D-01-0.112D-01 0.765D-01
 Coeff-Com:  0.142D+00 0.822D+00
 Coeff:     -0.537D-04 0.323D-02-0.913D-03-0.318D-01-0.112D-01 0.765D-01
 Coeff:      0.142D+00 0.822D+00
 Gap=     0.283 Goal=   None    Shift=    0.000
 Gap=     0.278 Goal=   None    Shift=    0.000
 RMSDP=2.82D-08 MaxDP=1.83D-06 DE=-2.53D-10 OVMax= 4.05D-06

 Cycle  20  Pass 1  IDiag  1:
 RMSU=  1.36D-08    CP:  8.18D-01  1.02D+00  1.04D+00  1.92D+00  1.30D+00
                    CP:  2.76D+00  1.12D+00  1.23D+00
 E= -827.819387283635     Delta-E=       -0.000000000027 Rises=F Damp=F
 DIIS: error= 8.76D-08 at cycle   9 NSaved=   9.
 NSaved= 9 IEnMin= 9 EnMin= -827.819387283635     IErMin= 9 ErrMin= 8.76D-08
 ErrMax= 8.76D-08  0.00D+00 EMaxC= 1.00D-01 BMatC= 9.35D-12 BMatP= 3.17D-11
 IDIUse=1 WtCom= 1.00D+00 WtEn= 0.00D+00
 Coeff-Com:  0.234D-04-0.176D-02 0.265D-02 0.367D-01-0.552D-02-0.112D+00
 Coeff-Com: -0.479D-01 0.297D+00 0.831D+00
 Coeff:      0.234D-04-0.176D-02 0.265D-02 0.367D-01-0.552D-02-0.112D+00
 Coeff:     -0.479D-01 0.297D+00 0.831D+00
 Gap=     0.283 Goal=   None    Shift=    0.000
 Gap=     0.278 Goal=   None    Shift=    0.000
 RMSDP=1.30D-08 MaxDP=8.69D-07 DE=-2.73D-11 OVMax= 3.32D-06

 Cycle  21  Pass 1  IDiag  1:
 RMSU=  4.84D-09    CP:  8.18D-01  1.02D+00  1.04D+00  1.92D+00  1.29D+00
                    CP:  2.78D+00  1.14D+00  1.35D+00  1.57D+00
 E= -827.819387283642     Delta-E=       -0.000000000007 Rises=F Damp=F
 DIIS: error= 6.13D-08 at cycle  10 NSaved=  10.
 NSaved=10 IEnMin=10 EnMin= -827.819387283642     IErMin=10 ErrMin= 6.13D-08
 ErrMax= 6.13D-08  0.00D+00 EMaxC= 1.00D-01 BMatC= 2.63D-12 BMatP= 9.35D-12
 IDIUse=1 WtCom= 1.00D+00 WtEn= 0.00D+00
 Coeff-Com:  0.173D-04-0.108D-02 0.719D-03 0.125D-01 0.221D-02-0.334D-01
 Coeff-Com: -0.403D-01-0.179D+00 0.875D-01 0.115D+01
 Coeff:      0.173D-04-0.108D-02 0.719D-03 0.125D-01 0.221D-02-0.334D-01
 Coeff:     -0.403D-01-0.179D+00 0.875D-01 0.115D+01
 Gap=     0.283 Goal=   None    Shift=    0.000
 Gap=     0.278 Goal=   None    Shift=    0.000
 RMSDP=7.27D-09 MaxDP=7.46D-07 DE=-6.82D-12 OVMax= 3.34D-06

 SCF Done:  E(UM062X) =  -827.819387284     A.U. after   21 cycles
            NFock= 21  Conv=0.73D-08     -V/T= 2.0060
 <Sx>= 0.0000 <Sy>= 0.0000 <Sz>= 0.5000 <S**2>= 0.7557 S= 0.5028
 <L.S>=  0.00000000000    
 KE= 8.228827867695D+02 PE=-5.009778415215D+03 EE= 1.815292876378D+03
 Annihilation of the first spin contaminant:
 S**2 before annihilation     0.7557,   after     0.7500
 Leave Link  502 at Tue Jan  7 17:00:49 2025, MaxMem=  4026531840 cpu:           21055.6 elap:            1053.2
 (Enter /usr/local/intel/g16/l601.exe)
 Copying SCF densities to generalized density rwf, IOpCl= 1 IROHF=0.

 **********************************************************************

            Population analysis using the SCF Density.

 **********************************************************************

 Orbital symmetries:
 Alpha Orbitals:
       Occupied  (A) (A) (A) (A) (A) (A) (A) (A) (A) (A) (A) (A)
                 (A) (A) (A) (A) (A) (A) (A) (A) (A) (A) (A) (A)
                 (A) (A) (A) (A) (A) (A) (A) (A) (A) (A) (A) (A)
                 (A) (A) (A) (A) (A) (A) (A) (A) (A) (A) (A) (A)
                 (A) (A) (A) (A) (A) (A) (A) (A) (A) (A) (A) (A)
                 (A) (A) (A) (A) (A) (A) (A) (A) (A) (A) (A) (A)
       Virtual   (A) (A) (A) (A) (A) (A) (A) (A) (A) (A) (A) (A)
                 (A) (A) (A) (A) (A) (A) (A) (A) (A) (A) (A) (A)
                 (A) (A) (A) (A) (A) (A) (A) (A) (A) (A) (A) (A)
                 (A) (A) (A) (A) (A) (A) (A) (A) (A) (A) (A) (A)
                 (A) (A) (A) (A) (A) (A) (A) (A) (A) (A) (A) (A)
                 (A) (A) (A) (A) (A) (A) (A) (A) (A) (A) (A) (A)
                 (A) (A) (A) (A) (A) (A) (A) (A) (A) (A) (A) (A)
                 (A) (A) (A) (A) (A) (A) (A) (A) (A) (A) (A) (A)
                 (A) (A) (A) (A) (A) (A) (A) (A) (A) (A) (A) (A)
                 (A) (A) (A) (A) (A) (A) (A) (A) (A) (A) (A) (A)
                 (A) (A) (A) (A) (A) (A) (A) (A) (A) (A) (A) (A)
                 (A) (A) (A) (A) (A) (A) (A) (A) (A) (A) (A) (A)
                 (A) (A) (A) (A) (A) (A) (A) (A) (A) (A) (A) (A)
                 (A) (A) (A) (A) (A) (A) (A) (A) (A) (A) (A) (A)
                 (A) (A) (A) (A) (A) (A) (A) (A) (A) (A) (A) (A)
                 (A) (A) (A) (A) (A) (A) (A) (A) (A) (A) (A) (A)
                 (A) (A) (A) (A) (A) (A) (A) (A) (A) (A) (A) (A)
                 (A) (A) (A) (A) (A) (A) (A) (A) (A) (A) (A) (A)
                 (A) (A) (A) (A) (A) (A) (A) (A) (A) (A) (A) (A)
                 (A) (A) (A) (A) (A) (A) (A) (A) (A) (A) (A) (A)
                 (A) (A) (A) (A) (A) (A) (A) (A) (A) (A) (A) (A)
                 (A) (A) (A) (A) (A) (A) (A) (A) (A) (A) (A) (A)
                 (A) (A) (A) (A) (A) (A) (A) (A) (A) (A) (A) (A)
                 (A) (A) (A) (A) (A) (A) (A) (A) (A) (A) (A) (A)
                 (A) (A) (A) (A) (A) (A) (A) (A) (A) (A) (A) (A)
                 (A) (A) (A) (A) (A) (A) (A) (A) (A) (A) (A) (A)
                 (A) (A) (A) (A) (A) (A) (A) (A) (A) (A) (A) (A)
                 (A) (A) (A) (A) (A) (A) (A) (A) (A) (A) (A) (A)
                 (A) (A) (A) (A) (A) (A) (A) (A) (A) (A) (A) (A)
                 (A) (A) (A) (A) (A) (A) (A) (A) (A) (A) (A) (A)
                 (A) (A) (A) (A) (A) (A) (A) (A) (A) (A) (A) (A)
                 (A) (A) (A) (A) (A) (A) (A) (A) (A) (A) (A) (A)
                 (A) (A) (A) (A) (A) (A) (A) (A) (A) (A) (A) (A)
                 (A) (A) (A) (A) (A) (A) (A) (A) (A) (A) (A) (A)
                 (A) (A) (A) (A) (A) (A) (A) (A) (A) (A) (A) (A)
                 (A) (A) (A) (A) (A) (A) (A) (A) (A) (A) (A) (A)
                 (A) (A) (A) (A) (A) (A) (A) (A) (A) (A) (A) (A)
                 (A) (A) (A) (A) (A) (A) (A) (A) (A) (A) (A) (A)
                 (A) (A) (A) (A) (A) (A) (A) (A) (A) (A) (A) (A)
                 (A) (A) (A) (A) (A) (A) (A) (A) (A) (A) (A) (A)
                 (A) (A) (A) (A) (A) (A) (A) (A) (A) (A) (A) (A)
                 (A) (A) (A) (A) (A) (A) (A) (A) (A) (A) (A) (A)
                 (A) (A) (A) (A) (A) (A) (A) (A) (A) (A) (A) (A)
                 (A) (A) (A) (A) (A) (A) (A) (A) (A) (A) (A) (A)
                 (A) (A) (A) (A) (A) (A) (A) (A) (A) (A) (A) (A)
                 (A) (A) (A) (A) (A) (A) (A) (A) (A) (A) (A) (A)
                 (A) (A) (A) (A) (A) (A) (A) (A) (A) (A) (A) (A)
                 (A) (A) (A) (A) (A) (A) (A) (A) (A) (A) (A) (A)
                 (A) (A) (A) (A) (A) (A) (A) (A) (A) (A) (A) (A)
                 (A) (A) (A) (A) (A) (A) (A) (A) (A) (A) (A) (A)
                 (A) (A) (A) (A) (A) (A) (A) (A) (A) (A) (A) (A)
                 (A) (A) (A) (A) (A) (A) (A) (A) (A) (A) (A) (A)
                 (A) (A) (A) (A) (A) (A) (A) (A) (A) (A) (A) (A)
                 (A) (A) (A) (A) (A) (A) (A) (A) (A) (A) (A) (A)
                 (A) (A) (A) (A) (A) (A) (A) (A) (A) (A) (A) (A)
                 (A) (A) (A) (A) (A) (A) (A) (A)
 Beta  Orbitals:
       Occupied  (A) (A) (A) (A) (A) (A) (A) (A) (A) (A) (A) (A)
                 (A) (A) (A) (A) (A) (A) (A) (A) (A) (A) (A) (A)
                 (A) (A) (A) (A) (A) (A) (A) (A) (A) (A) (A) (A)
                 (A) (A) (A) (A) (A) (A) (A) (A) (A) (A) (A) (A)
                 (A) (A) (A) (A) (A) (A) (A) (A) (A) (A) (A) (A)
                 (A) (A) (A) (A) (A) (A) (A) (A) (A) (A) (A)
       Virtual   (A) (A) (A) (A) (A) (A) (A) (A) (A) (A) (A) (A)
                 (A) (A) (A) (A) (A) (A) (A) (A) (A) (A) (A) (A)
                 (A) (A) (A) (A) (A) (A) (A) (A) (A) (A) (A) (A)
                 (A) (A) (A) (A) (A) (A) (A) (A) (A) (A) (A) (A)
                 (A) (A) (A) (A) (A) (A) (A) (A) (A) (A) (A) (A)
                 (A) (A) (A) (A) (A) (A) (A) (A) (A) (A) (A) (A)
                 (A) (A) (A) (A) (A) (A) (A) (A) (A) (A) (A) (A)
                 (A) (A) (A) (A) (A) (A) (A) (A) (A) (A) (A) (A)
                 (A) (A) (A) (A) (A) (A) (A) (A) (A) (A) (A) (A)
                 (A) (A) (A) (A) (A) (A) (A) (A) (A) (A) (A) (A)
                 (A) (A) (A) (A) (A) (A) (A) (A) (A) (A) (A) (A)
                 (A) (A) (A) (A) (A) (A) (A) (A) (A) (A) (A) (A)
                 (A) (A) (A) (A) (A) (A) (A) (A) (A) (A) (A) (A)
                 (A) (A) (A) (A) (A) (A) (A) (A) (A) (A) (A) (A)
                 (A) (A) (A) (A) (A) (A) (A) (A) (A) (A) (A) (A)
                 (A) (A) (A) (A) (A) (A) (A) (A) (A) (A) (A) (A)
                 (A) (A) (A) (A) (A) (A) (A) (A) (A) (A) (A) (A)
                 (A) (A) (A) (A) (A) (A) (A) (A) (A) (A) (A) (A)
                 (A) (A) (A) (A) (A) (A) (A) (A) (A) (A) (A) (A)
                 (A) (A) (A) (A) (A) (A) (A) (A) (A) (A) (A) (A)
                 (A) (A) (A) (A) (A) (A) (A) (A) (A) (A) (A) (A)
                 (A) (A) (A) (A) (A) (A) (A) (A) (A) (A) (A) (A)
                 (A) (A) (A) (A) (A) (A) (A) (A) (A) (A) (A) (A)
                 (A) (A) (A) (A) (A) (A) (A) (A) (A) (A) (A) (A)
                 (A) (A) (A) (A) (A) (A) (A) (A) (A) (A) (A) (A)
                 (A) (A) (A) (A) (A) (A) (A) (A) (A) (A) (A) (A)
                 (A) (A) (A) (A) (A) (A) (A) (A) (A) (A) (A) (A)
                 (A) (A) (A) (A) (A) (A) (A) (A) (A) (A) (A) (A)
                 (A) (A) (A) (A) (A) (A) (A) (A) (A) (A) (A) (A)
                 (A) (A) (A) (A) (A) (A) (A) (A) (A) (A) (A) (A)
                 (A) (A) (A) (A) (A) (A) (A) (A) (A) (A) (A) (A)
                 (A) (A) (A) (A) (A) (A) (A) (A) (A) (A) (A) (A)
                 (A) (A) (A) (A) (A) (A) (A) (A) (A) (A) (A) (A)
                 (A) (A) (A) (A) (A) (A) (A) (A) (A) (A) (A) (A)
                 (A) (A) (A) (A) (A) (A) (A) (A) (A) (A) (A) (A)
                 (A) (A) (A) (A) (A) (A) (A) (A) (A) (A) (A) (A)
                 (A) (A) (A) (A) (A) (A) (A) (A) (A) (A) (A) (A)
                 (A) (A) (A) (A) (A) (A) (A) (A) (A) (A) (A) (A)
                 (A) (A) (A) (A) (A) (A) (A) (A) (A) (A) (A) (A)
                 (A) (A) (A) (A) (A) (A) (A) (A) (A) (A) (A) (A)
                 (A) (A) (A) (A) (A) (A) (A) (A) (A) (A) (A) (A)
                 (A) (A) (A) (A) (A) (A) (A) (A) (A) (A) (A) (A)
                 (A) (A) (A) (A) (A) (A) (A) (A) (A) (A) (A) (A)
                 (A) (A) (A) (A) (A) (A) (A) (A) (A) (A) (A) (A)
                 (A) (A) (A) (A) (A) (A) (A) (A) (A) (A) (A) (A)
                 (A) (A) (A) (A) (A) (A) (A) (A) (A) (A) (A) (A)
                 (A) (A) (A) (A) (A) (A) (A) (A) (A) (A) (A) (A)
                 (A) (A) (A) (A) (A) (A) (A) (A) (A) (A) (A) (A)
                 (A) (A) (A) (A) (A) (A) (A) (A) (A) (A) (A) (A)
                 (A) (A) (A) (A) (A) (A) (A) (A) (A) (A) (A) (A)
                 (A) (A) (A) (A) (A) (A) (A) (A) (A) (A) (A) (A)
                 (A) (A) (A) (A) (A) (A) (A) (A) (A) (A) (A) (A)
                 (A) (A) (A) (A) (A) (A) (A) (A) (A) (A) (A) (A)
                 (A) (A) (A) (A) (A) (A) (A) (A) (A) (A) (A) (A)
                 (A) (A) (A) (A) (A) (A) (A) (A) (A) (A) (A) (A)
                 (A) (A) (A) (A) (A) (A) (A) (A) (A)
 The electronic state is 2-A.
 Alpha  occ. eigenvalues --  -19.63584 -14.83809 -10.59975 -10.59973 -10.55830
 Alpha  occ. eigenvalues --  -10.55830 -10.54949 -10.54913 -10.54892 -10.54892
 Alpha  occ. eigenvalues --  -10.54808 -10.54808 -10.54616 -10.54616 -10.54538
 Alpha  occ. eigenvalues --  -10.54538 -10.54298 -10.54298 -10.53316 -10.53315
 Alpha  occ. eigenvalues --   -1.20470  -1.00484  -0.96535  -0.95161  -0.90648
 Alpha  occ. eigenvalues --   -0.84756  -0.84544  -0.84262  -0.83576  -0.82946
 Alpha  occ. eigenvalues --   -0.80507  -0.74297  -0.71182  -0.69795  -0.68673
 Alpha  occ. eigenvalues --   -0.68660  -0.65626  -0.62428  -0.61310  -0.59391
[...]
 .00001326,0.00001491,0.00001071,-0.00000524,-0.00000089,-0.00000446,0.
 00000217,-0.00000065,0.00000011,-0.00000564,-0.00000333,-0.00001094,-0
 .00000659,0.00001231,-0.00000726,0.05776829,-0.20775840,0.13654355,0.0
 0100561,-0.00416454,0.00663150,0.00305962,0.00402321,0.00237909,-0.000
 47377,0.00012826,-0.00063024,-0.00173477,0.00268988,0.00397642,0.00000
 496,-0.00000711,0.00000246,0.00000221,-0.00000331,0.00000067,0.0000009
 1,-0.00000184,0.00000042,-0.00000100,-0.00000068,0.00000182,-0.0000055
 4,-0.00001171,0.00000116,-0.06486902,0.21587311,0.00002195,-0.00012187
 ,0.00014990,0.00003297,-0.00019645,-0.00018306,-0.00006470,-0.00007554
 ,0.00002607,-0.00012751,0.00009424,0.00015744,-0.00003875,-0.00020022,
 -0.00003256,-0.00161248,-0.00084538,-0.00186730,0.00036970,0.00034966,
 -0.00011194,-0.00006033,0.00002679,0.00002400,-0.00634387,0.01445102,-
 0.00770651,-0.00001027,-0.00004389,0.00000025,-0.00000825,-0.00003963,
 -0.00002847,-0.00083214,-0.00023890,0.00022770,0.00012376,0.00002500,-
 0.00003883,0.00000370,-0.00003289,-0.00001409,0.00001370,-0.00001471,0
 .00000485,0.00000028,-0.00001266,0.00000411,-0.00001147,0.00003296,0.0
 0009850,-0.00023238,-0.00038147,0.00021852,0.00043939,-0.00088715,-0.0
 0019254,-0.00001004,-0.00001290,0.00000543,0.00001408,-0.00000511,0.00
 003051,0.00000278,-0.00001035,-0.00000231,0.00000156,-0.00000244,-0.00
 000264,-0.00000461,-0.00000212,-0.00000231,0.00000160,0.00000137,0.000
 00055,-0.04047007,0.13665223,-0.14895085,0.00131223,-0.00039952,0.0034
 6249,0.00118842,0.00273098,0.00488883,0.00037420,-0.00063887,-0.000264
 51,0.00433271,0.00372961,0.00173448,0.00000895,0.00001568,-0.00002073,
 0.00000523,0.00000081,-0.00000232,-0.00000164,0.00000068,-0.00000155,-
 0.00000182,-0.00000100,-0.00000099,-0.00000025,-0.00000116,-0.00000456
 ,0.04319042,-0.15193244,0.15110946,-0.00001361,-0.00006823,0.00011050,
 -0.00047447,0.00005224,-0.00014031,0.00004986,0.00005762,0.00014483,-0
 .00002062,0.00001949,-0.00003269,0.00000308,0.00001991,0.00009408,-0.0
 0000315,-0.00092391,0.00086497,-0.00004482,-0.00008163,-0.00003026,-0.
 00003078,-0.00000563,-0.00002563,-0.00423189,0.00382232,0.00027529,-0.
 00001876,-0.00001534,-0.00000975,0.00000409,0.00000500,0.00001874,-0.0
 0000465,-0.00001491,-0.00000699,-0.00004029,0.00000342,-0.00004339,0.0
 0000146,0.00000963,0.00000277,-0.00000557,-0.00001631,-0.00000020,0.00
 000609,0.00000553,0.00000347,0.00000417,0.00000563,-0.00000529,-0.0000
 2118,0.00006175,0.00000363,0.00001331,0.00001810,-0.00000746,0.0000065
 9,-0.00004358,-0.00002692,-0.00000807,0.00001129,0.00000919,0.00000447
 ,-0.00000658,-0.00000570,-0.00000911,0.00000006,-0.00000396,-0.0000059
 4,-0.00000005,-0.00000508,-0.00001889,0.00001486,0.00000764,-0.0149461
 8,-0.01447539,0.01890712,-0.18478449,-0.07909747,0.11771313,0.00984964
 ,0.00476235,-0.00637796,0.00111203,0.00267857,-0.00051937,-0.00045689,
 0.00080427,-0.00080354,0.00001480,-0.00001161,-0.00000624,-0.00000165,
 0.00000204,0.00000197,-0.00000422,0.00000003,-0.00000026,-0.00000586,-
 0.00000057,-0.00000134,0.00000363,-0.00000100,0.00000182,0.00077555,-0
 .00056964,-0.00103493,0.19264646,0.00000122,0.00000051,-0.00017279,0.0
 0017231,-0.00010756,0.00007856,-0.00003884,-0.00000501,-0.00001188,-0.
 00000750,0.00001759,0.00000821,-0.00008053,0.00001540,-0.00009527,0.00
 037286,0.00035167,-0.00019233,-0.00000552,-0.00001923,-0.00000638,0.00
 001554,-0.00000442,0.00000225,0.00338947,0.00334407,0.00289730,-0.0000
 0528,-0.00000300,0.00000184,-0.00000063,-0.00001245,0.00001842,-0.0000
 3899,0.00001810,0.00004096,-0.00000919,-0.00000961,0.00000335,0.000000
 04,0.00000738,0.00000651,-0.00000653,0.00000554,-0.00000323,-0.0000008
 3,-0.00000149,-0.00000055,0.00000850,-0.00000468,-0.00001057,-0.000004
 72,-0.00000083,-0.00000925,0.00001450,-0.00001318,-0.00001008,0.000000
 65,0.00000120,-0.00000140,0.00000042,-0.00000341,0.00000003,-0.0000004
 7,-0.00000031,0.00000102,0.00000062,0.00000007,0.00000014,0.00000119,-
 0.00000007,-0.00000005,-0.00000094,0.00000181,0.00000034,0.00761111,0.
 00787286,-0.00659953,-0.07915720,-0.10419083,0.08504377,-0.01755087,-0
 .00547755,0.01338593,0.00313790,-0.00010310,0.00577235,0.00078576,-0.0
 0077999,-0.00021159,-0.00000333,0.00000391,-0.00000214,0.00000089,-0.0
 0000022,-0.00000045,0.00000011,0.00000026,0.00000014,-0.00000057,-0.00
 000010,-0.00000008,0.00000006,-0.00000068,0.00000100,-0.00109342,-0.00
 134942,-0.00227929,0.08399955,0.10234536,0.00004769,-0.00002803,-0.000
 13926,0.00002425,-0.00009638,0.00005022,-0.00005323,-0.00000543,-0.000
 00254,-0.00000153,0.00000615,0.00000514,-0.00001363,-0.00001269,-0.000
 09290,-0.00006085,0.00008993,0.00018036,0.00009122,-0.00005126,-0.0000
 0901,0.00000225,0.00000350,-0.00000029,0.00053402,0.00295029,0.0048934
 7,0.00000252,-0.00000067,0.00000320,-0.00000432,-0.00001339,0.00000543
 ,-0.00004581,-0.00000038,0.00000159,0.00000896,-0.00000163,0.00001376,
 0.00000055,-0.00000268,-0.00000206,0.00000162,0.00000393,0.00000076,-0
 .00000338,-0.00000023,-0.00000154,0.00001221,0.00001206,-0.00001542,0.
 00000694,-0.00001768,-0.00002675,0.00001911,0.00002141,0.00000487,-0.0
 0001076,0.00000692,-0.00000061,0.00000696,-0.00000384,-0.00000223,-0.0
 0000199,0.00000306,0.00000250,0.00000421,-0.00000058,0.00000078,0.0000
 0057,-0.00000079,-0.00000087,0.00000485,-0.00000115,-0.00000274,-0.001
 47730,0.00039756,0.00336525,0.11793945,0.08490491,-0.15170639,0.013875
 52,0.00646083,-0.00698727,-0.00088469,0.00592568,0.00220740,-0.0008087
 1,-0.00026875,-0.00027546,-0.00000713,0.00000548,0.00000205,0.00000155
 ,-0.00000159,-0.00000102,0.00000212,-0.00000041,0.00000039,0.00000134,
 0.00000008,0.00000116,-0.00000257,-0.00000182,-0.00000099,-0.00055034,
 -0.00243502,-0.00184721,-0.12825484,-0.09540736,0.15292978,-0.00012197
 ,0.00002990,-0.00005373,-0.00003332,0.00005077,0.00004796,0.00007465,0
 .00001232,0.00005055,-0.00001190,0.00000753,0.00000199,0.00000437,0.00
 002933,-0.00000848,-0.00001944,-0.00019301,-0.00015696,0.00004015,-0.0
 0000045,-0.00001049,-0.00000011,-0.00002298,-0.00001612,0.00049063,-0.
 00058505,0.00014179,-0.00001201,-0.00000045,-0.00000854,0.00000439,0.0
 0000882,0.00001685,0.00001161,0.00000428,0.00000791,-0.00001187,0.0000
 0236,-0.00001667,0.00000053,0.00003139,0.00001487,-0.00001802,-0.00000
 407,-0.00000539,0.00000660,0.00000355,0.00000259,0.00000120,-0.0000076
 9,0.00000495,-0.00001739,-0.00001273,0.00000847,0.00000057,-0.00002043
 ,0.00000107,0.00001612,-0.00002144,-0.00000998,-0.00001044,0.00000737,
 0.00000688,0.00000320,-0.00000649,-0.00000395,-0.00000765,-0.00000014,
 -0.00000230,-0.00000302,0.00000004,-0.00000114,-0.00001293,0.00000922,
 0.00000703,0.00188872,0.00205559,-0.00016798,-0.00398058,0.00066530,0.
 00150229,-0.31425113,0.09008846,0.00413373,-0.01515951,0.00859282,-0.0
 0219920,-0.00056660,-0.00159275,0.00409597,0.00000988,-0.00000851,-0.0
 0000661,-0.00000121,0.00000238,0.00000098,-0.00000348,0.00000078,-0.00
 000073,-0.00000422,0.00000011,-0.00000213,0.00000385,0.00000091,0.0000
 0164,-0.00030016,-0.00000340,0.00012611,0.00040530,-0.00041222,-0.0009
 5548,0.33173841,-0.00007872,0.00004526,-0.00005136,0.00004691,-0.00001
 977,0.00001994,0.00002226,0.00000417,0.00001346,0.00001187,-0.00001265
 ,-0.00000369,-0.00005125,0.00007426,0.00003978,-0.00016188,-0.00037212
 ,-0.00047014,0.00004812,-0.00006426,0.00001883,0.00000110,-0.00000483,
 -0.00001330,-0.00061882,-0.00102187,0.00033987,0.00000026,0.00000734,-
 0.00000196,-0.00000292,0.00000333,0.00000285,0.00000513,0.00000187,-0.
 00007603,0.00001192,0.00000378,-0.00004638,0.00000238,0.00000864,0.000
 00917,-0.00000542,-0.00000036,-0.00000040,0.00000380,0.00000314,-0.000
 00222,0.00002010,0.00001035,0.00000218,-0.00000154,-0.00002886,0.00000
 198,-0.00000506,0.00002874,0.00001417,-0.00000437,0.00000195,-0.000006
 00,0.00000323,0.00000201,-0.00000039,-0.00000115,0.00000093,-0.0000004
 5,0.00000090,-0.00000012,0.,-0.00000077,-0.00000126,-0.00000167,-0.000
 00011,0.00000222,0.,0.00158643,-0.00008698,0.00630630,0.02304930,-0.00
 316193,-0.00177269,0.09005276,-0.07939304,0.01037570,-0.01374216,0.008
 11986,-0.00040872,-0.00110914,0.00260239,0.00509861,-0.00000167,-0.000
 00225,0.00000233,0.00000050,-0.00000100,-0.00000004,0.00000078,-0.0000
 0047,0.00000019,0.00000003,0.00000026,0.00000041,-0.00000143,-0.000001
 84,-0.00000068,0.00113417,-0.00028494,0.00000015,-0.00108221,-0.001067
 23,-0.00222180,-0.09824392,0.07570762,0.00000760,-0.00003545,0.0000961
 7,0.00002235,-0.00012232,-0.00008991,-0.00003584,-0.00001632,-0.000006
 69,-0.00000685,0.00002916,0.00002560,-0.00001781,0.00005130,-0.0000206
 7,-0.00015230,-0.00042824,-0.00050646,0.00008192,-0.00002042,0.0000212
 8,-0.00002156,0.00002468,0.00001002,0.00014463,0.00038662,-0.00122599,
 -0.00000269,-0.00000435,0.00000203,0.00000654,-0.00000129,-0.00000723,
 0.00002183,0.00001499,0.00001797,-0.00000154,-0.00000256,-0.00002649,0
 .00000631,-0.00001883,-0.00000382,0.00000960,-0.00000428,0.00000246,0.
 00000061,-0.00000550,0.00000065,0.00000888,0.00001892,0.00001466,-0.00
 002448,-0.00005506,0.00002160,-0.00000789,-0.00006369,0.00001186,-0.00
 000616,0.00000060,0.00000021,0.00000564,-0.00000375,0.00000207,-0.0000
 0023,0.00000065,0.00000021,0.00000257,-0.00000035,0.00000001,0.0000005
 0,-0.00000089,-0.00000035,0.00000175,-0.00000039,0.00000002,0.00017767
 ,0.00613272,0.00173563,-0.01883618,0.00517930,0.00393276,0.00408984,0.
 01043790,-0.04819435,0.01823716,-0.00737974,0.00405545,0.00365509,0.00
 522343,0.00180445,-0.00000246,0.00000344,0.00000021,0.00000148,-0.0000
 0086,-0.00000058,0.00000073,-0.00000020,0.00000018,0.00000026,-0.00000
 014,0.00000039,-0.00000100,-0.00000042,-0.00000155,-0.00091577,0.00035
 058,0.00005268,-0.00034371,-0.00242003,-0.00156570,-0.00569645,-0.0147
 5042,0.04134493,0.00002119,-0.00012789,0.00010996,0.00009304,0.0000071
 7,-0.00009130,0.00005816,0.00006600,0.00004563,-0.00002191,0.00003084,
 -0.00002902,-0.00021645,0.00016332,0.00014271,0.00041900,0.00083240,-0
 .00102179,-0.00026169,-0.00002640,-0.00001484,-0.00006986,0.00001160,0
 .00000892,-0.00500638,0.00269455,0.00145165,-0.00001186,-0.00002261,-0
 .00000211,0.00001449,0.00000167,0.00000428,0.00002177,-0.00000927,-0.0
 0000078,-0.00006276,-0.00002122,-0.00010361,0.00000929,0.00000697,-0.0
 0003477,0.00001047,-0.00001696,0.00000560,-0.00000846,0.00000116,0.000
 00912,0.00001646,0.00000993,0.00000647,-0.00003358,0.00009789,0.000051
 61,0.00000333,-0.00001642,-0.00001248,-0.00001316,-0.00003777,0.000001
 73,0.00000201,0.00000193,0.00001516,0.00000458,-0.00000607,-0.00000308
 ,-0.00000230,-0.00000295,-0.00000250,-0.00000631,-0.00000105,-0.000001
 84,-0.00000405,0.00000169,0.00000971,-0.00133288,-0.00037361,0.0004926
 3,-0.00204314,-0.00108783,0.00399013,0.01024069,-0.01677547,0.01341732
 ,-0.07887871,0.06020552,-0.04290469,-0.00345778,0.02294010,-0.01895598
 ,0.00000703,-0.00000009,-0.00001079,0.00000104,0.00000168,-0.00000133,
 -0.00000121,0.00000050,-0.00000148,-0.00000165,0.00000089,-0.00000155,
 0.00000059,0.00000221,-0.00000523,0.00004360,-0.00013819,-0.00026136,0
 .00032068,-0.00086350,0.00070133,0.00057847,-0.00025432,-0.00122726,0.
 07879502,0.00007155,0.00001097,-0.00007236,-0.00007982,-0.00002035,0.0
 0006455,-0.00002964,-0.00001662,-0.00002503,-0.00000164,0.00000878,0.0
 0002367,0.00015004,-0.00008070,0.00000373,-0.00027172,-0.00021678,0.00
 022847,0.00010890,0.00004104,0.00008013,0.00000625,-0.00000340,0.00000
 352,0.00277354,0.00382896,0.00246294,0.00001290,0.00000442,0.00000090,
 0.00000275,-0.00001065,-0.00000910,0.00001724,-0.00000200,-0.00002517,
 0.00006226,0.00001240,0.00004643,0.00000390,0.00000227,0.00001011,-0.0
 0000267,0.00000675,-0.00000104,0.00000455,0.00000112,-0.00000260,0.000
 00498,0.00000040,0.00000221,-0.00000836,-0.00005135,0.00000756,-0.0000
 1948,-0.00000612,-0.00000171,-0.00001288,0.00001499,0.00000026,0.00001
 135,-0.00000125,-0.00000464,-0.00000278,0.00000435,0.00000167,0.000005
 63,-0.00000036,0.00000085,0.00000079,-0.00000061,-0.00000147,0.0000081
 8,-0.00000208,-0.00000444,-0.00025616,0.00009734,-0.00080225,-0.001522
 82,0.00335648,0.00444594,0.00538428,-0.00593426,0.00698493,0.06036367,
 -0.20907648,0.13889001,0.00085426,-0.00352472,0.00628359,-0.00000801,0
 .00000239,0.00000805,0.00000168,-0.00000300,-0.00000004,0.00000238,-0.
 00000100,0.00000086,0.00000204,-0.00000022,0.00000159,-0.00000362,-0.0
 0000331,-0.00000081,-0.00014668,-0.00056294,-0.00053419,0.00031189,-0.
 00037335,0.00033643,-0.00090531,-0.00136198,-0.00224297,-0.06620755,0.
 21528912,0.00001704,-0.00004114,-0.00003749,-0.00009393,0.00004784,0.0
 0003947,0.00005202,0.00002433,0.00002740,-0.00002744,0.00003334,0.0000
 0586,0.00006719,0.00000821,0.00009082,0.00024424,-0.00010478,-0.000043
 52,-0.00005384,0.00002150,0.00003690,-0.00003348,-0.00000851,-0.000007
 02,0.00122478,0.00241916,0.00473609,-0.00000063,-0.00000751,-0.0000065
 3,0.00000958,0.00000478,0.00000018,0.00003383,-0.00000675,-0.00001538,
 0.00002494,-0.00000244,-0.00001007,-0.00000882,0.00002779,0.00001465,-
 0.00001069,-0.00000375,-0.00000370,0.00001435,-0.00000192,0.00000486,0
 .00000875,-0.00000855,-0.00000142,-0.00002556,0.00001438,0.00002624,-0
 .00000844,-0.00001821,-0.00000929,-0.00000756,-0.00002024,-0.00000470,
 0.00000328,0.00000369,0.00000834,0.00000215,-0.00000391,-0.00000283,-0
 .00000119,-0.00000197,-0.00000216,-0.00000420,-0.00000124,-0.00000236,
 -0.00000372,0.00000503,0.00000623,0.00054306,-0.00071309,-0.00036007,0
 .00431759,0.00432204,0.00227028,-0.00717106,0.01376304,-0.00700833,-0.
 04271990,0.13916295,-0.15350631,0.00119555,-0.00054464,0.00362107,0.00
 000424,-0.00000332,-0.00000329,0.00000133,0.00000004,-0.00000008,-0.00
 000098,0.00000004,-0.00000058,-0.00000197,0.00000045,-0.00000102,0.000
 00008,-0.00000067,-0.00000232,-0.00024101,-0.00052432,-0.00062383,-0.0
 0036624,0.00071140,-0.00042054,-0.00064745,-0.00241964,-0.00162883,0.0
 4476016,-0.15388024,0.15451396,-0.00242263,0.00085924,0.00056499,-0.00
 312810,0.00282258,-0.00187258,-0.00038231,-0.00027303,-0.00031550,0.00
 015637,0.00001841,-0.00001986,-0.00021923,0.00002229,0.00000026,-0.000
 51278,-0.00038751,-0.00063157,0.00011609,-0.00007340,0.00018518,-0.000
 03065,0.00004038,0.00001244,0.01009216,0.00263697,-0.00448355,-0.00001
 521,-0.00001123,0.00005366,0.00005792,0.00000136,0.00002710,0.00002944
 ,-0.00001610,0.00009793,-0.00000470,0.00000392,-0.00004254,-0.00029443
 ,-0.00050636,-0.00027948,0.00011037,0.00005840,0.00004308,-0.00011012,
 -0.00006989,0.00007968,0.00006021,0.00000743,-0.00000638,-0.00000210,-
 0.00000445,-0.00004525,0.00000517,-0.00009671,0.00000255,-0.00004067,0
 .00015602,0.00011329,0.00003012,-0.00003900,-0.00000701,-0.00001941,0.
 00001874,0.00000173,0.00002808,0.00001133,0.00001560,0.00003022,-0.000
 00269,0.00001146,0.00005628,-0.00004422,-0.00003088,0.00056579,0.00308
 019,-0.00066221,-0.00038982,0.00066645,-0.00077832,-0.00395103,0.00368
 684,0.00043096,-0.01432600,-0.01321584,0.01847549,-0.18106446,-0.07795
 096,0.12045069,-0.00006816,0.00005183,-0.00000049,0.00000703,-0.000008
 01,-0.00000423,0.00000988,-0.00000167,0.00000246,0.00001480,-0.0000033
 3,0.00000712,-0.00000808,0.00000496,-0.00000895,0.00048144,0.00043574,
 -0.00043689,-0.00007012,-0.00023160,-0.00015270,-0.00073168,-0.0006351
 1,0.00081723,0.00077324,-0.00068584,-0.00109606,0.19516707,-0.00003238
 ,-0.00012376,-0.00142370,0.00103734,0.00005435,0.00142093,0.00058210,0
 .00033849,0.00026809,-0.00012857,-0.00004568,0.00005866,-0.00029021,0.
 00036558,0.00004556,-0.00210195,-0.00148135,-0.00171146,0.00060962,-0.
 00019792,0.00006304,-0.00031005,0.00010268,-0.00010744,-0.01600367,-0.
 00540379,0.01451554,0.00002674,-0.00000683,-0.00006220,0.00006982,-0.0
 0004242,-0.00002784,-0.00003795,-0.00000110,-0.00009596,-0.00002063,-0
 .00003522,-0.00012102,-0.00041861,-0.00033649,-0.00037558,0.00008368,-
 0.00010929,0.00002816,0.00000929,0.00004033,0.00005535,0.00000935,-0.0
 0015945,0.00001426,0.00001709,-0.00016828,-0.00005677,-0.00001068,0.00
 012970,-0.00001961,-0.00004217,-0.00017844,-0.00007728,-0.00000410,0.0
 0004647,0.00004741,0.00002107,-0.00002318,-0.00002909,-0.00002043,-0.0
 0001481,-0.00001941,-0.00004200,-0.00000416,-0.00002068,-0.00004029,0.
 00003646,0.00004636,0.00300765,-0.00040040,0.00548622,0.00076102,-0.00
 073299,-0.00027243,0.00333593,0.00332798,0.00298109,0.00768558,0.00808
 247,-0.00663407,-0.07570995,-0.10079211,0.08383093,0.00005185,-0.00005
 708,-0.00001451,-0.00000009,0.00000239,0.00000332,-0.00000851,-0.00000
 225,-0.00000344,-0.00001161,0.00000391,-0.00000548,-0.00000096,-0.0000
 0711,-0.00001568,-0.00084468,-0.00036568,0.00079895,-0.00025146,-0.000
 45798,-0.00055466,0.00043781,0.00025964,-0.00027582,-0.00108887,-0.001
 42823,-0.00225317,0.07967386,0.09978556,0.00081970,-0.00039687,0.00055
 059,0.00013281,-0.00086769,-0.00040599,-0.00046899,0.00024602,-0.00014
 363,-0.00011882,0.00017532,0.00005121,-0.00032831,0.00030520,0.0000324
 6,0.00067069,-0.00179744,-0.00205616,0.00040144,-0.00016825,0.00008536
 ,-0.00039316,0.00030276,0.00012770,0.01258632,0.00744617,-0.00686499,0
 .00004069,-0.00005909,0.00000708,0.00008817,-0.00006477,-0.00015893,0.
 00000918,-0.00001268,0.00006460,-0.00006523,-0.00006437,-0.00011356,-0
 .00021756,-0.00053564,-0.00010873,0.00020765,-0.00007273,-0.00000965,0
 .00012222,-0.00001510,-0.00002519,0.00001911,-0.00000138,-0.00001068,-
 0.00004442,-0.00010476,-0.00003451,-0.00000167,-0.00003773,-0.00000345
 ,-0.00008642,-0.00008748,-0.00002359,0.00006596,-0.00002503,0.00000703
 ,0.00000950,0.00000709,0.00000038,0.00002395,-0.00001326,-0.00000598,-
 0.00001296,-0.00000514,-0.00000606,0.00001872,-0.00000996,0.00001649,-
 0.00074208,0.00524249,0.00181542,-0.00080627,-0.00018819,-0.00033909,0
 .00024526,0.00285325,0.00454819,-0.00194226,-0.00024444,0.00453668,0.1
 2040440,0.08608219,-0.16109382,0.00000049,0.00001451,0.00001592,0.0000
 1080,-0.00000805,-0.00000329,0.00000661,-0.00000233,0.00000021,0.00000
 624,0.00000214,0.00000205,-0.00001310,-0.00000246,-0.00002073,0.000717
 07,0.00041175,-0.00029665,-0.00010710,-0.00053927,-0.00056732,-0.00020
 386,0.00000209,0.00012515,-0.00053631,-0.00228030,-0.00170066,-0.13051
 847,-0.09548658,0.16200616\\-0.00000186,0.00000140,0.00001800,-0.00000
 068,-0.00000050,-0.00002720,0.00000471,0.00000693,0.00000350,-0.000004
 52,0.00001251,-0.00000348,0.00000407,-0.00001183,-0.00000297,-0.000004
 56,-0.00000807,0.00000344,-0.00000153,-0.00000607,-0.00000030,0.000001
 53,0.00000611,-0.00000034,0.00000954,0.00000385,-0.00001002,-0.0000011
 1,-0.00000395,0.00000736,0.00000764,0.00000193,-0.00000225,0.00000010,
 0.00000374,0.00000758,-0.00000762,-0.00000187,-0.00000256,0.00000345,-
 0.00000142,0.00000039,0.00000005,0.00000104,-0.00000262,0.00000028,-0.
 00000125,0.00000140,-0.00000016,0.00000122,0.00000158,-0.00000309,0.00
 000196,-0.00000005,0.00000063,-0.00000110,-0.00000300,-0.00000895,-0.0
 0000415,-0.00000848,-0.00000566,-0.00000329,-0.00000186,0.00000214,-0.
 00000177,-0.00000197,0.00000461,-0.00000427,-0.00000293,0.00000358,0.0
 0000439,0.00000531,-0.00000289,0.00000572,0.00000901,0.00000270,-0.000
 00548,0.00000937,-0.00000310,-0.00000439,0.00000569,-0.00000440,0.0000
 0452,-0.00000312,-0.00000223,0.00000226,-0.00000216,0.00000624,0.00000
 205,-0.00000040,-0.00000362,-0.00000206,0.00000097,-0.00000097,-0.0000
 0242,-0.00000130,0.00000058,-0.00000221,0.00000078,0.00000149,-0.00000
 025,0.00000082,0.00000017,-0.00000025,0.00000073,0.00000017,0.00000065
 ,0.00000115,-0.00000142,0.00000026,0.00000076,-0.00000049,0.00000218,0
 .00000063,0.00000092,0.00000239,-0.00000139,0.00000426,0.00000148,-0.0
 0000008\\\@
 The archive entry for this job was punched.


 IF YOU DON'T HAVE THE LAW - ARGUE THE FACTS.
 IF YOU DON'T HAVE THE FACTS - ARGUE THE LAW.
 IF YOU DON'T HAVE EITHER - POUND THE TABLE.
 Job cpu time:       3 days 16 hours 54 minutes 15.2 seconds.
 Elapsed time:       0 days  4 hours 26 minutes 44.0 seconds.
 File lengths (MBytes):  RWF=   3300 Int=      0 D2E=      0 Chk=     62 Scr=      1
 Normal termination of Gaussian 16 at Tue Jan  7 23:29:32 2025.
