 Entering Gaussian System, Link 0=g16
 Input=gjfs/data_set_12-catalyst-28.gjf
 Output=gjfs/data_set_12-catalyst-28.log
 Initial command:
 /usr/local/intel/g16/l1.exe "/scr/Gau-4139208.inp" -scrdir="/scr/"
 Entering Link 1 = /usr/local/intel/g16/l1.exe PID=   4139215.
  
 Copyright (c) 1988-2019, Gaussian, Inc.  All Rights Reserved.
  
 This is part of the Gaussian(R) 16 program.  It is based on
 the Gaussian(R) 09 system (copyright 2009, Gaussian, Inc.),
 the Gaussian(R) 03 system (copyright 2003, Gaussian, Inc.),
 the Gaussian(R) 98 system (copyright 1998, Gaussian, Inc.),
 the Gaussian(R) 94 system (copyright 1995, Gaussian, Inc.),
 the Gaussian 92(TM) system (copyright 1992, Gaussian, Inc.),
 the Gaussian 90(TM) system (copyright 1990, Gaussian, Inc.),
 the Gaussian 88(TM) system (copyright 1988, Gaussian, Inc.),
 the Gaussian 86(TM) system (copyright 1986, Carnegie Mellon
 University), and the Gaussian 82(TM) system (copyright 1983,
 Carnegie Mellon University). Gaussian is a federally registered
 trademark of Gaussian, Inc.
  
 This software contains proprietary and confidential information,
 including trade secrets, belonging to Gaussian, Inc.
  
 This software is provided under written license and may be
 used, copied, transmitted, or stored only in accord with that
 written license.
  
 The following legend is applicable only to US Government
 contracts under FAR:
  
                    RESTRICTED RIGHTS LEGEND
  
 Use, reproduction and disclosure by the US Government is
 subject to restrictions as set forth in subparagraphs (a)
 and (c) of the Commercial Computer Software - Restricted
 Rights clause in FAR 52.227-19.
  
 Gaussian, Inc.
 340 Quinnipiac St., Bldg. 40, Wallingford CT 06492
  
  
 ---------------------------------------------------------------
 Warning -- This program may not be used in any manner that
 competes with the business of Gaussian, Inc. or will provide
 assistance to any competitor of Gaussian, Inc.  The licensee
 of this program is prohibited from giving any competitor of
 Gaussian, Inc. access to this program.  By using this program,
 the user acknowledges that Gaussian, Inc. is engaged in the
 business of creating and licensing software in the field of
 computational chemistry and represents and warrants to the
 licensee that it is not a competitor of Gaussian, Inc. and that
 it will not use this program in any manner prohibited above.
 ---------------------------------------------------------------
  

 Cite this work as:
 Gaussian 16, Revision C.01,
 M. J. Frisch, G. W. Trucks, H. B. Schlegel, G. E. Scuseria, 
 M. A. Robb, J. R. Cheeseman, G. Scalmani, V. Barone, 
 G. A. Petersson, H. Nakatsuji, X. Li, M. Caricato, A. V. Marenich, 
 J. Bloino, B. G. Janesko, R. Gomperts, B. Mennucci, H. P. Hratchian, 
 J. V. Ortiz, A. F. Izmaylov, J. L. Sonnenberg, D. Williams-Young, 
 F. Ding, F. Lipparini, F. Egidi, J. Goings, B. Peng, A. Petrone, 
 T. Henderson, D. Ranasinghe, V. G. Zakrzewski, J. Gao, N. Rega, 
 G. Zheng, W. Liang, M. Hada, M. Ehara, K. Toyota, R. Fukuda, 
 J. Hasegawa, M. Ishida, T. Nakajima, Y. Honda, O. Kitao, H. Nakai, 
 T. Vreven, K. Throssell, J. A. Montgomery, Jr., J. E. Peralta, 
 F. Ogliaro, M. J. Bearpark, J. J. Heyd, E. N. Brothers, K. N. Kudin, 
 V. N. Staroverov, T. A. Keith, R. Kobayashi, J. Normand, 
 K. Raghavachari, A. P. Rendell, J. C. Burant, S. S. Iyengar, 
 J. Tomasi, M. Cossi, J. M. Millam, M. Klene, C. Adamo, R. Cammi, 
 J. W. Ochterski, R. L. Martin, K. Morokuma, O. Farkas, 
 J. B. Foresman, and D. J. Fox, Gaussian, Inc., Wallingford CT, 2019.
 
 ******************************************
 Gaussian 16:  ES64L-G16RevC.01  3-Jul-2019
                 7-Jan-2025 
 ******************************************
 %nprocshared=20
 Will use up to   20 processors via shared memory.
 %mem=30GB
 %chk=outputs/data_set_12-catalyst-28.chk
 ----------------------------------
 #p M062X/DEF2TZVP opt freq pop=NBO
 ----------------------------------
 1/18=20,19=15,26=3,38=1/1,3;
 2/9=110,12=2,17=6,18=5,40=1/2;
 3/5=44,7=101,11=2,25=1,30=1,71=1,74=-55/1,2,3;
 4//1;
 5/5=2,38=5/2;
 6/7=2,8=2,9=2,10=2,28=1,40=1/1,7;
 7//1,2,3,16;
 1/18=20,19=15,26=3/3(2);
 2/9=110/2;
 99//99;
 2/9=110/2;
 3/5=44,7=101,11=2,25=1,30=1,71=1,74=-55/1,2,3;
 4/5=5,16=3,69=1/1;
 5/5=2,38=5/2;
 7//1,2,3,16;
 1/18=20,19=15,26=3/3(-5);
 2/9=110/2;
 6/7=2,8=2,9=2,10=2,19=2,28=1,40=1/1,7;
 99/9=1/99;
 Leave Link    1 at Tue Jan  7 16:43:06 2025, MaxMem=  4026531840 cpu:               0.6 elap:               0.2
 (Enter /usr/local/intel/g16/l101.exe)
 -----------------------
 data_set_12-catalyst-28
 -----------------------
 Symbolic Z-matrix:
 Charge =  0 Multiplicity = 2
 O                    -2.34725   0.06621  -0.25808 
 N                    -1.02617   0.02819  -0.25268 
 C                    -0.33579   1.33877  -0.01367 
 C                     1.16404   1.21156  -0.35874 
 C                     1.81196  -0.05496   0.20794 
 C                     1.09676  -1.27821  -0.3521 
 C                    -0.40725  -1.31825  -0.00978 
 C                    -0.98125   2.38393  -0.94283 
 C                    -0.54696   1.76774   1.45915 
 C                    -0.64519  -1.73114   1.46332 
 C                    -1.1082   -2.32789  -0.93798 
 H                     1.67311   2.10934   0.01641 
 H                     1.29166   1.19103  -1.44812 
 H                     1.76993  -0.04854   1.30687 
 O                     3.1995   -0.17156  -0.21662 
 H                     1.56816  -2.18928   0.0293 
 H                     1.23136  -1.27086  -1.44034 
 H                    -2.02993   2.53671  -0.68092 
 H                    -0.93301   2.05191  -1.98459 
 H                    -0.44531   3.33514  -0.85022 
 H                    -0.01084   1.12271   2.16219 
 H                    -1.61356   1.73126   1.69901 
 H                    -0.19127   2.79432   1.59931 
 H                    -0.34631  -2.77517   1.60459 
 H                    -1.70826  -1.63484   1.70279 
 H                    -0.07269  -1.11761   2.16598 
 H                    -1.04081  -2.00066  -1.9802 
 H                    -2.16373  -2.42515  -0.6768 
 H                    -0.62264  -3.30536  -0.84389 
 H                     3.72059   0.59118   0.09306 
 
 ITRead=  0  0  0  0  0  0  0  0  0  0  0  0  0  0  0  0  0  0  0  0
 ITRead=  0  0  0  0  0  0  0  0  0  0
 MicOpt= -1 -1 -1 -1 -1 -1 -1 -1 -1 -1 -1 -1 -1 -1 -1 -1 -1 -1 -1 -1
 MicOpt= -1 -1 -1 -1 -1 -1 -1 -1 -1 -1
 NAtoms=     30 NQM=       30 NQMF=       0 NMMI=      0 NMMIF=      0
                NMic=       0 NMicF=      0.
                    Isotopes and Nuclear Properties:
 (Nuclear quadrupole moments (NQMom) in fm**2, nuclear magnetic moments (NMagM)
  in nuclear magnetons)

  Atom         1           2           3           4           5           6           7           8           9          10
 IAtWgt=          16          14          12          12          12          12          12          12          12          12
 AtmWgt=  15.9949146  14.0030740  12.0000000  12.0000000  12.0000000  12.0000000  12.0000000  12.0000000  12.0000000  12.0000000
 NucSpn=           0           2           0           0           0           0           0           0           0           0
 AtZEff=  -0.0000000  -0.0000000  -0.0000000  -0.0000000  -0.0000000  -0.0000000  -0.0000000  -0.0000000  -0.0000000  -0.0000000
 NQMom=    0.0000000   2.0440000   0.0000000   0.0000000   0.0000000   0.0000000   0.0000000   0.0000000   0.0000000   0.0000000
 NMagM=    0.0000000   0.4037610   0.0000000   0.0000000   0.0000000   0.0000000   0.0000000   0.0000000   0.0000000   0.0000000
 AtZNuc=   8.0000000   7.0000000   6.0000000   6.0000000   6.0000000   6.0000000   6.0000000   6.0000000   6.0000000   6.0000000

  Atom        11          12          13          14          15          16          17          18          19          20
 IAtWgt=          12           1           1           1          16           1           1           1           1           1
 AtmWgt=  12.0000000   1.0078250   1.0078250   1.0078250  15.9949146   1.0078250   1.0078250   1.0078250   1.0078250   1.0078250
 NucSpn=           0           1           1           1           0           1           1           1           1           1
 AtZEff=  -0.0000000  -0.0000000  -0.0000000  -0.0000000  -0.0000000  -0.0000000  -0.0000000  -0.0000000  -0.0000000  -0.0000000
 NQMom=    0.0000000   0.0000000   0.0000000   0.0000000   0.0000000   0.0000000   0.0000000   0.0000000   0.0000000   0.0000000
 NMagM=    0.0000000   2.7928460   2.7928460   2.7928460   0.0000000   2.7928460   2.7928460   2.7928460   2.7928460   2.7928460
 AtZNuc=   6.0000000   1.0000000   1.0000000   1.0000000   8.0000000   1.0000000   1.0000000   1.0000000   1.0000000   1.0000000

  Atom        21          22          23          24          25          26          27          28          29          30
 IAtWgt=           1           1           1           1           1           1           1           1           1           1
 AtmWgt=   1.0078250   1.0078250   1.0078250   1.0078250   1.0078250   1.0078250   1.0078250   1.0078250   1.0078250   1.0078250
 NucSpn=           1           1           1           1           1           1           1           1           1           1
 AtZEff=  -0.0000000  -0.0000000  -0.0000000  -0.0000000  -0.0000000  -0.0000000  -0.0000000  -0.0000000  -0.0000000  -0.0000000
 NQMom=    0.0000000   0.0000000   0.0000000   0.0000000   0.0000000   0.0000000   0.0000000   0.0000000   0.0000000   0.0000000
 NMagM=    2.7928460   2.7928460   2.7928460   2.7928460   2.7928460   2.7928460   2.7928460   2.7928460   2.7928460   2.7928460
 AtZNuc=   1.0000000   1.0000000   1.0000000   1.0000000   1.0000000   1.0000000   1.0000000   1.0000000   1.0000000   1.0000000
 Leave Link  101 at Tue Jan  7 16:43:08 2025, MaxMem=  4026531840 cpu:              16.4 elap:               1.0
 (Enter /usr/local/intel/g16/l103.exe)

 GradGradGradGradGradGradGradGradGradGradGradGradGradGradGradGradGradGrad
 Berny optimization.
 Initialization pass.
                           ----------------------------
                           !    Initial Parameters    !
                           ! (Angstroms and Degrees)  !
 --------------------------                            --------------------------
 ! Name  Definition              Value          Derivative Info.                !
 --------------------------------------------------------------------------------
 ! R1    R(1,2)                  1.3216         estimate D2E/DX2                !
 ! R2    R(2,3)                  1.5005         estimate D2E/DX2                !
 ! R3    R(2,7)                  1.5017         estimate D2E/DX2                !
 ! R4    R(3,4)                  1.5443         estimate D2E/DX2                !
 ! R5    R(3,8)                  1.5402         estimate D2E/DX2                !
 ! R6    R(3,9)                  1.5485         estimate D2E/DX2                !
 ! R7    R(4,5)                  1.5313         estimate D2E/DX2                !
 ! R8    R(4,12)                 1.0981         estimate D2E/DX2                !
 ! R9    R(4,13)                 1.097          estimate D2E/DX2                !
 ! R10   R(5,6)                  1.5236         estimate D2E/DX2                !
 ! R11   R(5,14)                 1.0998         estimate D2E/DX2                !
 ! R12   R(5,15)                 1.4557         estimate D2E/DX2                !
 ! R13   R(6,7)                  1.543          estimate D2E/DX2                !
 ! R14   R(6,16)                 1.0944         estimate D2E/DX2                !
 ! R15   R(6,17)                 1.0965         estimate D2E/DX2                !
 ! R16   R(7,10)                 1.5483         estimate D2E/DX2                !
 ! R17   R(7,11)                 1.5402         estimate D2E/DX2                !
 ! R18   R(8,18)                 1.0916         estimate D2E/DX2                !
 ! R19   R(8,19)                 1.0944         estimate D2E/DX2                !
 ! R20   R(8,20)                 1.0957         estimate D2E/DX2                !
 ! R21   R(9,21)                 1.0944         estimate D2E/DX2                !
 ! R22   R(9,22)                 1.0938         estimate D2E/DX2                !
 ! R23   R(9,23)                 1.0955         estimate D2E/DX2                !
 ! R24   R(10,24)                1.0951         estimate D2E/DX2                !
 ! R25   R(10,25)                1.094          estimate D2E/DX2                !
 ! R26   R(10,26)                1.0945         estimate D2E/DX2                !
 ! R27   R(11,27)                1.0945         estimate D2E/DX2                !
 ! R28   R(11,28)                1.0917         estimate D2E/DX2                !
 ! R29   R(11,29)                1.0955         estimate D2E/DX2                !
 ! R30   R(15,30)                0.9743         estimate D2E/DX2                !
 ! A1    A(1,2,3)              115.8133         estimate D2E/DX2                !
 ! A2    A(1,2,7)              116.0047         estimate D2E/DX2                !
 ! A3    A(3,2,7)              124.5946         estimate D2E/DX2                !
 ! A4    A(2,3,4)              109.8359         estimate D2E/DX2                !
 ! A5    A(2,3,8)              107.6855         estimate D2E/DX2                !
 ! A6    A(2,3,9)              109.3129         estimate D2E/DX2                !
 ! A7    A(4,3,8)              109.154          estimate D2E/DX2                !
 ! A8    A(4,3,9)              111.58           estimate D2E/DX2                !
 ! A9    A(8,3,9)              109.1871         estimate D2E/DX2                !
 ! A10   A(3,4,5)              113.3518         estimate D2E/DX2                !
 ! A11   A(3,4,12)             107.8522         estimate D2E/DX2                !
 ! A12   A(3,4,13)             109.6595         estimate D2E/DX2                !
 ! A13   A(5,4,12)             110.7079         estimate D2E/DX2                !
 ! A14   A(5,4,13)             107.6243         estimate D2E/DX2                !
 ! A15   A(12,4,13)            107.4941         estimate D2E/DX2                !
 ! A16   A(4,5,6)              109.231          estimate D2E/DX2                !
 ! A17   A(4,5,14)             110.4123         estimate D2E/DX2                !
 ! A18   A(4,5,15)             111.1991         estimate D2E/DX2                !
 ! A19   A(6,5,14)             110.7349         estimate D2E/DX2                !
 ! A20   A(6,5,15)             106.0163         estimate D2E/DX2                !
 ! A21   A(14,5,15)            109.1674         estimate D2E/DX2                !
 ! A22   A(5,6,7)              113.3801         estimate D2E/DX2                !
 ! A23   A(5,6,16)             109.759          estimate D2E/DX2                !
 ! A24   A(5,6,17)             107.5651         estimate D2E/DX2                !
 ! A25   A(7,6,16)             108.719          estimate D2E/DX2                !
 ! A26   A(7,6,17)             109.8761         estimate D2E/DX2                !
 ! A27   A(16,6,17)            107.3712         estimate D2E/DX2                !
 ! A28   A(2,7,6)              110.0348         estimate D2E/DX2                !
 ! A29   A(2,7,10)             109.2487         estimate D2E/DX2                !
 ! A30   A(2,7,11)             107.6204         estimate D2E/DX2                !
 ! A31   A(6,7,10)             111.5803         estimate D2E/DX2                !
 ! A32   A(6,7,11)             109.0818         estimate D2E/DX2                !
 ! A33   A(10,7,11)            109.186          estimate D2E/DX2                !
 ! A34   A(3,8,18)             110.6592         estimate D2E/DX2                !
 ! A35   A(3,8,19)             110.4804         estimate D2E/DX2                !
 ! A36   A(3,8,20)             109.4579         estimate D2E/DX2                !
 ! A37   A(18,8,19)            108.2505         estimate D2E/DX2                !
 ! A38   A(18,8,20)            109.1536         estimate D2E/DX2                !
 ! A39   A(19,8,20)            108.7988         estimate D2E/DX2                !
 ! A40   A(3,9,21)             112.3909         estimate D2E/DX2                !
 ! A41   A(3,9,22)             109.4087         estimate D2E/DX2                !
 ! A42   A(3,9,23)             109.6955         estimate D2E/DX2                !
 ! A43   A(21,9,22)            108.4908         estimate D2E/DX2                !
 ! A44   A(21,9,23)            108.1237         estimate D2E/DX2                !
 ! A45   A(22,9,23)            108.6507         estimate D2E/DX2                !
 ! A46   A(7,10,24)            109.5742         estimate D2E/DX2                !
 ! A47   A(7,10,25)            109.5201         estimate D2E/DX2                !
 ! A48   A(7,10,26)            112.3932         estimate D2E/DX2                !
 ! A49   A(24,10,25)           108.7171         estimate D2E/DX2                !
 ! A50   A(24,10,26)           107.9894         estimate D2E/DX2                !
 ! A51   A(25,10,26)           108.568          estimate D2E/DX2                !
 ! A52   A(7,11,27)            110.4789         estimate D2E/DX2                !
 ! A53   A(7,11,28)            110.7471         estimate D2E/DX2                !
 ! A54   A(7,11,29)            109.3555         estimate D2E/DX2                !
 ! A55   A(27,11,28)           108.2995         estimate D2E/DX2                !
 ! A56   A(27,11,29)           108.7402         estimate D2E/DX2                !
 ! A57   A(28,11,29)           109.1789         estimate D2E/DX2                !
 ! A58   A(5,15,30)            110.7564         estimate D2E/DX2                !
 ! D1    D(1,2,3,4)           -166.8254         estimate D2E/DX2                !
 ! D2    D(1,2,3,8)            -48.0662         estimate D2E/DX2                !
 ! D3    D(1,2,3,9)             70.4412         estimate D2E/DX2                !
 ! D4    D(7,2,3,4)             35.4655         estimate D2E/DX2                !
 ! D5    D(7,2,3,8)            154.2246         estimate D2E/DX2                !
 ! D6    D(7,2,3,9)            -87.268          estimate D2E/DX2                !
 ! D7    D(1,2,7,6)            166.9201         estimate D2E/DX2                !
 ! D8    D(1,2,7,10)           -70.2592         estimate D2E/DX2                !
 ! D9    D(1,2,7,11)            48.1743         estimate D2E/DX2                !
 ! D10   D(3,2,7,6)            -35.4089         estimate D2E/DX2                !
 ! D11   D(3,2,7,10)            87.4119         estimate D2E/DX2                !
 ! D12   D(3,2,7,11)          -154.1547         estimate D2E/DX2                !
 ! D13   D(2,3,4,5)            -45.6887         estimate D2E/DX2                !
 ! D14   D(2,3,4,12)          -168.6236         estimate D2E/DX2                !
 ! D15   D(2,3,4,13)            74.6056         estimate D2E/DX2                !
 ! D16   D(8,3,4,5)           -163.5398         estimate D2E/DX2                !
 ! D17   D(8,3,4,12)            73.5253         estimate D2E/DX2                !
 ! D18   D(8,3,4,13)           -43.2455         estimate D2E/DX2                !
 ! D19   D(9,3,4,5)             75.6951         estimate D2E/DX2                !
 ! D20   D(9,3,4,12)           -47.2398         estimate D2E/DX2                !
 ! D21   D(9,3,4,13)          -164.0106         estimate D2E/DX2                !
 ! D22   D(2,3,8,18)            64.1477         estimate D2E/DX2                !
 ! D23   D(2,3,8,19)           -55.7271         estimate D2E/DX2                !
 ! D24   D(2,3,8,20)          -175.5143         estimate D2E/DX2                !
 ! D25   D(4,3,8,18)          -176.6572         estimate D2E/DX2                !
 ! D26   D(4,3,8,19)            63.468          estimate D2E/DX2                !
 ! D27   D(4,3,8,20)           -56.3192         estimate D2E/DX2                !
 ! D28   D(9,3,8,18)           -54.4405         estimate D2E/DX2                !
 ! D29   D(9,3,8,19)          -174.3153         estimate D2E/DX2                !
 ! D30   D(9,3,8,20)            65.8976         estimate D2E/DX2                !
 ! D31   D(2,3,9,21)            68.9753         estimate D2E/DX2                !
 ! D32   D(2,3,9,22)           -51.6108         estimate D2E/DX2                !
 ! D33   D(2,3,9,23)          -170.7056         estimate D2E/DX2                !
 ! D34   D(4,3,9,21)           -52.7115         estimate D2E/DX2                !
 ! D35   D(4,3,9,22)          -173.2977         estimate D2E/DX2                !
 ! D36   D(4,3,9,23)            67.6076         estimate D2E/DX2                !
 ! D37   D(8,3,9,21)          -173.4573         estimate D2E/DX2                !
 ! D38   D(8,3,9,22)            65.9565         estimate D2E/DX2                !
 ! D39   D(8,3,9,23)           -53.1382         estimate D2E/DX2                !
 ! D40   D(3,4,5,6)             59.6366         estimate D2E/DX2                !
 ! D41   D(3,4,5,14)           -62.3628         estimate D2E/DX2                !
 ! D42   D(3,4,5,15)           176.2987         estimate D2E/DX2                !
 ! D43   D(12,4,5,6)          -179.0188         estimate D2E/DX2                !
 ! D44   D(12,4,5,14)           58.9818         estimate D2E/DX2                !
 ! D45   D(12,4,5,15)          -62.3566         estimate D2E/DX2                !
 ! D46   D(13,4,5,6)           -61.8064         estimate D2E/DX2                !
 ! D47   D(13,4,5,14)          176.1942         estimate D2E/DX2                !
 ! D48   D(13,4,5,15)           54.8558         estimate D2E/DX2                !
 ! D49   D(4,5,6,7)            -59.5238         estimate D2E/DX2                !
 ! D50   D(4,5,6,16)           178.6863         estimate D2E/DX2                !
 ! D51   D(4,5,6,17)            62.1693         estimate D2E/DX2                !
 ! D52   D(14,5,6,7)            62.2811         estimate D2E/DX2                !
 ! D53   D(14,5,6,16)          -59.5088         estimate D2E/DX2                !
 ! D54   D(14,5,6,17)         -176.0258         estimate D2E/DX2                !
 ! D55   D(15,5,6,7)          -179.4302         estimate D2E/DX2                !
 ! D56   D(15,5,6,16)           58.7799         estimate D2E/DX2                !
 ! D57   D(15,5,6,17)          -57.7372         estimate D2E/DX2                !
 ! D58   D(4,5,15,30)           60.3168         estimate D2E/DX2                !
 ! D59   D(6,5,15,30)          178.9296         estimate D2E/DX2                !
 ! D60   D(14,5,15,30)         -61.7469         estimate D2E/DX2                !
 ! D61   D(5,6,7,2)             45.6434         estimate D2E/DX2                !
 ! D62   D(5,6,7,10)           -75.7955         estimate D2E/DX2                !
 ! D63   D(5,6,7,11)           163.4888         estimate D2E/DX2                !
 ! D64   D(16,6,7,2)           168.0124         estimate D2E/DX2                !
 ! D65   D(16,6,7,10)           46.5736         estimate D2E/DX2                !
 ! D66   D(16,6,7,11)          -74.1422         estimate D2E/DX2                !
 ! D67   D(17,6,7,2)           -74.7483         estimate D2E/DX2                !
 ! D68   D(17,6,7,10)          163.8129         estimate D2E/DX2                !
 ! D69   D(17,6,7,11)           43.0971         estimate D2E/DX2                !
 ! D70   D(2,7,10,24)          170.6482         estimate D2E/DX2                !
 ! D71   D(2,7,10,25)           51.4781         estimate D2E/DX2                !
 ! D72   D(2,7,10,26)          -69.2839         estimate D2E/DX2                !
 ! D73   D(6,7,10,24)          -67.4581         estimate D2E/DX2                !
 ! D74   D(6,7,10,25)          173.3718         estimate D2E/DX2                !
 ! D75   D(6,7,10,26)           52.6099         estimate D2E/DX2                !
 ! D76   D(11,7,10,24)          53.1968         estimate D2E/DX2                !
 ! D77   D(11,7,10,25)         -65.9733         estimate D2E/DX2                !
 ! D78   D(11,7,10,26)         173.2647         estimate D2E/DX2                !
 ! D79   D(2,7,11,27)           55.7387         estimate D2E/DX2                !
 ! D80   D(2,7,11,28)          -64.2533         estimate D2E/DX2                !
 ! D81   D(2,7,11,29)          175.3879         estimate D2E/DX2                !
 ! D82   D(6,7,11,27)          -63.6166         estimate D2E/DX2                !
 ! D83   D(6,7,11,28)          176.3914         estimate D2E/DX2                !
 ! D84   D(6,7,11,29)           56.0326         estimate D2E/DX2                !
 ! D85   D(10,7,11,27)         174.2125         estimate D2E/DX2                !
 ! D86   D(10,7,11,28)          54.2205         estimate D2E/DX2                !
 ! D87   D(10,7,11,29)         -66.1383         estimate D2E/DX2                !
 --------------------------------------------------------------------------------
 Trust Radius=3.00D-01 FncErr=1.00D-07 GrdErr=1.00D-06 EigMax=2.50D+02 EigMin=1.00D-04
 Number of steps in this run=    180 maximum allowed number of steps=    180.
 GradGradGradGradGradGradGradGradGradGradGradGradGradGradGradGradGradGrad

 Leave Link  103 at Tue Jan  7 16:43:08 2025, MaxMem=  4026531840 cpu:               0.4 elap:               0.1
 (Enter /usr/local/intel/g16/l202.exe)
                          Input orientation:                          
 ---------------------------------------------------------------------
 Center     Atomic      Atomic             Coordinates (Angstroms)
 Number     Number       Type             X           Y           Z
 ---------------------------------------------------------------------
      1          8           0       -2.347249    0.066209   -0.258076
      2          7           0       -1.026173    0.028187   -0.252679
      3          6           0       -0.335793    1.338773   -0.013671
      4          6           0        1.164037    1.211563   -0.358739
      5          6           0        1.811961   -0.054962    0.207941
      6          6           0        1.096765   -1.278205   -0.352104
      7          6           0       -0.407247   -1.318253   -0.009782
      8          6           0       -0.981252    2.383930   -0.942830
      9          6           0       -0.546960    1.767737    1.459145
     10          6           0       -0.645185   -1.731135    1.463324
     11          6           0       -1.108199   -2.327893   -0.937976
     12          1           0        1.673113    2.109342    0.016407
     13          1           0        1.291664    1.191034   -1.448115
     14          1           0        1.769927   -0.048537    1.306871
     15          8           0        3.199500   -0.171557   -0.216615
     16          1           0        1.568164   -2.189277    0.029296
     17          1           0        1.231358   -1.270860   -1.440335
     18          1           0       -2.029934    2.536706   -0.680923
     19          1           0       -0.933008    2.051912   -1.984586
     20          1           0       -0.445314    3.335138   -0.850218
     21          1           0       -0.010836    1.122714    2.162185
     22          1           0       -1.613560    1.731262    1.699007
     23          1           0       -0.191272    2.794320    1.599305
     24          1           0       -0.346305   -2.775169    1.604594
     25          1           0       -1.708262   -1.634839    1.702787
     26          1           0       -0.072693   -1.117606    2.165982
     27          1           0       -1.040812   -2.000663   -1.980196
     28          1           0       -2.163727   -2.425146   -0.676801
     29          1           0       -0.622641   -3.305362   -0.843889
     30          1           0        3.720586    0.591179    0.093059
 ---------------------------------------------------------------------
                    Distance matrix (angstroms):
                    1          2          3          4          5
     1  O    0.000000
     2  N    1.321634   0.000000
     3  C    2.392720   1.500462   0.000000
     4  C    3.694739   2.491716   1.544262   0.000000
     5  C    4.186990   2.876472   2.569914   1.531345   0.000000
     6  C    3.698313   2.494677   3.002554   2.490685   1.523640
     7  C    2.396246   1.501655   2.657989   2.998445   2.562848
     8  C    2.776088   2.455168   1.540230   2.513538   3.882590
     9  C    3.014148   2.487171   1.548479   2.557644   3.232994
    10  C    3.015076   2.486972   3.420756   3.905467   3.228484
    11  C    2.780150   2.455091   3.859455   4.245741   3.873845
    12  H    4.518080   3.419029   2.151833   1.098135   2.177194
    13  H    3.990377   2.855459   2.174413   1.097019   2.136758
    14  H    4.406060   3.202539   2.846492   2.174675   1.099752
    15  O    5.551997   4.230545   3.849751   2.465021   1.455715
    16  H    4.527721   3.424506   4.009244   3.446680   2.155609
    17  H    3.998990   2.862603   3.361773   2.708654   2.128925
    18  H    2.526429   2.735616   2.179537   3.472932   4.718790
    19  H    2.987295   2.665266   2.179390   2.783373   4.096455
    20  H    3.828039   3.410334   2.167321   2.709453   4.208060
    21  H    3.526002   2.839096   2.210572   2.782675   2.920373
    22  H    2.672242   2.656043   2.172557   3.495633   4.141023
    23  H    3.942168   3.431967   2.177429   2.859356   3.750632
    24  H    3.942936   3.430815   4.420793   4.693596   3.742763
    25  H    2.673360   2.656078   3.697603   4.538942   4.137940
    26  H    3.528609   2.841107   3.294527   3.650855   2.918057
    27  H    2.990725   2.664725   3.939049   4.220057   4.088032
    28  H    2.532955   2.737289   4.236528   4.939720   4.712392
    29  H    3.832094   3.409533   4.726472   4.881619   4.195084
    30  H    6.100616   4.792517   4.126075   2.669258   2.018303
                    6          7          8          9         10
     6  C    0.000000
     7  C    1.542997   0.000000
     8  C    4.251864   3.860857   0.000000
     9  C    3.906433   3.420614   2.517496   0.000000
    10  C    2.556426   1.548266   4.778732   3.500253   0.000000
    11  C    2.511366   1.540211   4.713535   4.778636   2.517289
    12  H    3.455930   4.009612   2.835699   2.669628   4.713527
    13  H    2.708573   3.354344   2.616192   3.487877   4.557075
    14  H    2.171964   2.843561   4.306627   2.947881   2.947606
    15  O    2.380026   3.790292   4.953442   4.539273   4.476168
    16  H    1.094411   2.159273   5.325296   4.709159   2.676797
    17  H    1.096547   2.175719   4.301238   4.560973   3.487765
    18  H    4.943472   4.236066   1.091636   2.714851   4.972906
    19  H    4.227843   3.941356   1.094449   3.476934   5.126633
    20  H    4.889689   4.728830   1.095720   2.792890   5.573109
    21  H    3.648677   3.291337   3.489053   1.094417   3.005871
    22  H    4.539803   3.697931   2.793759   1.093846   3.602983
    23  H    4.696009   4.421432   2.693499   1.095459   4.550195
    24  H    2.855174   2.175437   5.788681   4.549661   1.095123
    25  H    3.495417   2.173881   4.866039   3.603541   1.093960
    26  H    2.781040   2.210460   4.769795   3.008281   1.094483
    27  H    2.782421   2.179362   4.506033   5.125797   3.476636
    28  H    3.471557   2.180676   4.959459   4.975587   2.714361
    29  H    2.703253   2.165810   5.701441   5.571896   2.793194
    30  H    3.252261   4.549232   5.137539   4.632756   5.131347
                   11         12         13         14         15
    11  C    0.000000
    12  H    5.323119   0.000000
    13  H    4.289806   1.770203   0.000000
    14  H    4.303302   2.516170   3.058630   0.000000
    15  O    4.870977   2.754389   2.648223   2.092803   0.000000
    16  H    2.849166   4.299919   3.699419   2.501135   2.606324
    17  H    2.615953   3.707157   2.462645   3.054713   2.565062
    18  H    4.957822   3.792290   3.665028   5.007370   5.907389
    19  H    4.506526   3.286204   2.445011   4.748835   5.014694
    20  H    5.702371   2.596411   2.823430   4.583621   5.097355
    21  H    4.766749   2.900600   3.838677   2.296630   4.200010
    22  H    4.866807   3.711645   4.317007   3.843103   5.518684
    23  H    5.789267   2.539821   3.749186   3.466072   4.857090
    24  H    2.691691   5.518952   5.266188   3.464332   4.761127
    25  H    2.795358   5.319442   5.187803   3.843293   5.469134
    26  H    3.488785   4.252259   4.500332   2.297004   4.156805
    27  H    1.094460   5.314504   3.988795   4.745088   4.943288
    28  H    1.091700   5.980256   5.060772   5.005683   5.835635
    29  H    1.095475   5.943872   4.924148   4.577888   4.982265
    30  H    5.735955   2.550067   2.938487   2.384879   0.974266
                   16         17         18         19         20
    16  H    0.000000
    17  H    1.765430   0.000000
    18  H    5.982110   5.070532   0.000000
    19  H    5.319705   4.002687   1.771386   0.000000
    20  H    5.945317   4.937072   1.782463   1.780816   0.000000
    21  H    4.244024   4.500044   3.762897   4.348508   3.762733
    22  H    5.318076   5.192472   2.546797   3.759631   3.230443
    23  H    5.513328   5.271525   2.940490   3.734383   2.521346
    24  H    2.547553   3.744804   6.022808   6.043769   6.585724
    25  H    3.720610   4.318919   4.815323   5.271610   5.728311
    26  H    2.899365   3.837911   5.028882   5.292750   5.391033
    27  H    3.298543   2.446798   4.822260   4.054011   5.486551
    28  H    3.805420   3.666328   4.963657   4.823797   6.013642
    29  H    2.609162   2.816427   6.011388   5.486155   6.642870
    30  H    3.516806   3.466229   6.119853   5.301536   5.076791
                   21         22         23         24         25
    21  H    0.000000
    22  H    1.775835   0.000000
    23  H    1.773036   1.778464   0.000000
    24  H    3.951827   4.682176   5.571649   0.000000
    25  H    3.270535   3.367435   4.682886   1.779023   0.000000
    26  H    2.241177   3.272367   3.954535   1.771309   1.776841
    27  H    5.289202   5.271797   6.043708   3.732683   3.760808
    28  H    5.028130   4.819012   6.026115   2.937738   2.548426
    29  H    5.386896   5.728510   6.584937   2.520424   3.233385
    30  H    4.299689   5.686121   4.735530   5.491506   6.084305
                   26         27         28         29         30
    26  H    0.000000
    27  H    4.348314   0.000000
    28  H    3.763442   1.771994   0.000000
    29  H    3.761388   1.779972   1.782595   0.000000
    30  H    4.648217   5.804045   6.657029   5.909697   0.000000
 Stoichiometry    C9H18NO2(2)
 Framework group  C1[X(C9H18NO2)]
 Deg. of freedom    84
 Full point group                 C1      NOp   1
 Largest Abelian subgroup         C1      NOp   1
 Largest concise Abelian subgroup C1      NOp   1
                         Standard orientation:                         
 ---------------------------------------------------------------------
 Center     Atomic      Atomic             Coordinates (Angstroms)
 Number     Number       Type             X           Y           Z
 ---------------------------------------------------------------------
      1          8           0       -2.347249    0.066206   -0.258076
      2          7           0       -1.026173    0.028186   -0.252679
      3          6           0       -0.335795    1.338773   -0.013671
      4          6           0        1.164035    1.211564   -0.358739
      5          6           0        1.811961   -0.054960    0.207941
      6          6           0        1.096766   -1.278204   -0.352104
      7          6           0       -0.407245   -1.318254   -0.009782
      8          6           0       -0.981255    2.383929   -0.942830
      9          6           0       -0.546962    1.767736    1.459145
     10          6           0       -0.645183   -1.731136    1.463324
     11          6           0       -1.108196   -2.327894   -0.937976
     12          1           0        1.673110    2.109344    0.016407
     13          1           0        1.291662    1.191036   -1.448115
     14          1           0        1.769927   -0.048535    1.306871
     15          8           0        3.199500   -0.171553   -0.216615
     16          1           0        1.568167   -2.189275    0.029296
     17          1           0        1.231359   -1.270859   -1.440335
     18          1           0       -2.029937    2.536704   -0.680923
     19          1           0       -0.933011    2.051911   -1.984586
     20          1           0       -0.445318    3.335137   -0.850218
     21          1           0       -0.010837    1.122714    2.162185
     22          1           0       -1.613562    1.731260    1.699007
     23          1           0       -0.191275    2.794320    1.599305
     24          1           0       -0.346302   -2.775169    1.604594
     25          1           0       -1.708260   -1.634841    1.702787
     26          1           0       -0.072692   -1.117606    2.165982
     27          1           0       -1.040810   -2.000664   -1.980196
     28          1           0       -2.163724   -2.425149   -0.676801
     29          1           0       -0.622637   -3.305363   -0.843889
     30          1           0        3.720585    0.591183    0.093059
 ---------------------------------------------------------------------
 Rotational constants (GHZ):           1.0495812           0.9476320           0.6445641
 Leave Link  202 at Tue Jan  7 16:43:08 2025, MaxMem=  4026531840 cpu:               0.0 elap:               0.2
 (Enter /usr/local/intel/g16/l301.exe)
 Standard basis: def2TZVP (5D, 7F)
 Ernie: Thresh=  0.10000D-02 Tol=  0.10000D-05 Strict=F.
 There are   540 symmetry adapted cartesian basis functions of A   symmetry.
 There are   480 symmetry adapted basis functions of A   symmetry.
   480 basis functions,   756 primitive gaussians,   540 cartesian basis functions
    48 alpha electrons       47 beta electrons
       nuclear repulsion energy       817.7636291052 Hartrees.
 IExCor= 4336 DFT=T Ex+Corr=M062X ExCW=0 ScaHFX=  0.540000
 ScaDFX=  1.000000  1.000000  1.000000  1.000000 ScalE2=  1.000000  1.000000
 IRadAn=      5 IRanWt=     -1 IRanGd=            0 ICorTp=0 IEmpDi=  4
 NAtoms=   30 NActive=   30 NUniq=   30 SFac= 1.00D+00 NAtFMM=   60 NAOKFM=F Big=F
 Integral buffers will be    131072 words long.
 Raffenetti 2 integral format.
 Two-electron integral symmetry is turned on.
 Leave Link  301 at Tue Jan  7 16:43:09 2025, MaxMem=  4026531840 cpu:               0.9 elap:               0.3
 (Enter /usr/local/intel/g16/l302.exe)
 NPDir=0 NMtPBC=     1 NCelOv=     1 NCel=       1 NClECP=     1 NCelD=      1
         NCelK=      1 NCelE2=     1 NClLst=     1 CellRange=     0.0.
 One-electron integrals computed using PRISM.
 One-electron integral symmetry used in STVInt
   1 Symmetry operations used in ECPInt.
 ECPInt:  NShTT=   20910 NPrTT=   61044 LenC2=   20274 LenP2D=   45930.
 LDataN:  DoStor=T MaxTD1= 6 Len=  172
 NBasis=   480 RedAO= T EigKep=  5.03D-05  NBF=   480
 NBsUse=   480 1.00D-06 EigRej= -1.00D+00 NBFU=   480
 Precomputing XC quadrature grid using
 IXCGrd= 4 IRadAn=           5 IRanWt=          -1 IRanGd=           0 AccXCQ= 0.00D+00.
 Generated NRdTot=       0 NPtTot=           0 NUsed=           0 NTot=          32
 NSgBfM=   536   536   536   536   536 MxSgAt=    30 MxSgA2=    30.
 Leave Link  302 at Tue Jan  7 16:43:10 2025, MaxMem=  4026531840 cpu:              12.6 elap:               0.6
 (Enter /usr/local/intel/g16/l303.exe)
 DipDrv:  MaxL=1.
 Leave Link  303 at Tue Jan  7 16:43:10 2025, MaxMem=  4026531840 cpu:               2.1 elap:               0.1
 (Enter /usr/local/intel/g16/l401.exe)
 ExpMin= 9.52D-02 ExpMax= 2.70D+04 ExpMxC= 9.22D+02 IAcc=3 IRadAn=         5 AccDes= 0.00D+00
 Harris functional with IExCor= 1009 and IRadAn=       5 diagonalized for initial guess.
 HarFok:  IExCor= 1009 AccDes= 0.00D+00 IRadAn=         5 IDoV= 1 UseB2=F ITyADJ=14
 ICtDFT=  3500011 ScaDFX=  1.000000  1.000000  1.000000  1.000000
 FoFCou: FMM=F IPFlag=           0 FMFlag=      100000 FMFlg1=           0
         NFxFlg=           0 DoJE=T BraDBF=F KetDBF=T FulRan=T
         wScrn=  0.000000 ICntrl=       500 IOpCl=  0 I1Cent=   200000004 NGrid=           0
         NMat0=    1 NMatS0=      1 NMatT0=    0 NMatD0=    1 NMtDS0=    0 NMtDT0=    0
 Petite list used in FoFCou.
 Harris En= -558.696299990577    
 JPrj=0 DoOrth=F DoCkMO=F.
 Initial guess <Sx>= 0.0000 <Sy>= 0.0000 <Sz>= 0.5000 <S**2>= 0.7500 S= 0.5000
 Leave Link  401 at Tue Jan  7 16:43:13 2025, MaxMem=  4026531840 cpu:              52.5 elap:               2.6
 (Enter /usr/local/intel/g16/l502.exe)
 Integral symmetry usage will be decided dynamically.
 UHF open shell SCF:
 Using DIIS extrapolation, IDIIS=  1040.
 NGot=  4026531840 LenX=  4025932130 LenY=  4025639990
 Requested convergence on RMS density matrix=1.00D-08 within 128 cycles.
 Requested convergence on MAX density matrix=1.00D-06.
 Requested convergence on             energy=1.00D-06.
 No special actions if energy rises.
 Fock matrices will be formed incrementally for  20 cycles.
 Integral accuracy reduced to 1.0D-05 until final iterations.

 Cycle   1  Pass 0  IDiag  1:
 FoFJK:  IHMeth= 1 ICntrl=       0 DoSepK=F KAlg= 0 I1Cent=           0 FoldK=F
 IRaf= 940000000 NMat=       1 IRICut=       1 DoRegI=T DoRafI=F ISym2E= 0 IDoP0=0 IntGTp=1.
 FoFCou: FMM=F IPFlag=           0 FMFlag=      100000 FMFlg1=           0
         NFxFlg=           0 DoJE=F BraDBF=F KetDBF=F FulRan=T
         wScrn=  0.000000 ICntrl=         0 IOpCl=  1 I1Cent=           0 NGrid=           0
         NMat0=    1 NMatS0=      1 NMatT0=    0 NMatD0=    1 NMtDS0=    0 NMtDT0=    0
 Symmetry not used in FoFCou.
 E= -558.454054652669    
 DIIS: error= 2.80D-02 at cycle   1 NSaved=   1.
 NSaved= 1 IEnMin= 1 EnMin= -558.454054652669     IErMin= 1 ErrMin= 2.80D-02
 ErrMax= 2.80D-02  0.00D+00 EMaxC= 1.00D-01 BMatC= 2.17D+00 BMatP= 2.17D+00
 IDIUse=3 WtCom= 7.20D-01 WtEn= 2.80D-01
 Coeff-Com:  0.100D+01
 Coeff-En:   0.100D+01
 Coeff:      0.100D+01
 Gap=     0.374 Goal=   None    Shift=    0.000
 Gap=     0.221 Goal=   None    Shift=    0.000
 GapD=    0.221 DampG=1.000 DampE=0.500 DampFc=0.5000 IDamp=-1.
 Damping current iteration by 5.00D-01
 RMSDP=4.13D-03 MaxDP=6.31D-01              OVMax= 1.62D-01

 Cycle   2  Pass 0  IDiag  1:
 RMSU=  2.06D-03    CP:  1.01D+00
 E= -558.671712934001     Delta-E=       -0.217658281333 Rises=F Damp=T
 DIIS: error= 6.26D-03 at cycle   2 NSaved=   2.
 NSaved= 2 IEnMin= 2 EnMin= -558.671712934001     IErMin= 2 ErrMin= 6.26D-03
 ErrMax= 6.26D-03  0.00D+00 EMaxC= 1.00D-01 BMatC= 1.65D-01 BMatP= 2.17D+00
 IDIUse=3 WtCom= 9.37D-01 WtEn= 6.26D-02
 Coeff-Com: -0.296D-01 0.103D+01
 Coeff-En:   0.000D+00 0.100D+01
 Coeff:     -0.277D-01 0.103D+01
 Gap=     0.336 Goal=   None    Shift=    0.000
 Gap=     0.313 Goal=   None    Shift=    0.000
 RMSDP=1.07D-03 MaxDP=1.09D-01 DE=-2.18D-01 OVMax= 1.26D-01

 Cycle   3  Pass 0  IDiag  1:
 RMSU=  1.02D-03    CP:  9.90D-01  8.54D-01
 E= -558.877417946654     Delta-E=       -0.205705012653 Rises=F Damp=F
 DIIS: error= 5.96D-03 at cycle   3 NSaved=   3.
 NSaved= 3 IEnMin= 3 EnMin= -558.877417946654     IErMin= 3 ErrMin= 5.96D-03
 ErrMax= 5.96D-03  0.00D+00 EMaxC= 1.00D-01 BMatC= 1.01D-01 BMatP= 1.65D-01
 IDIUse=3 WtCom= 9.40D-01 WtEn= 5.96D-02
 Coeff-Com: -0.681D-01 0.465D+00 0.603D+00
 Coeff-En:   0.000D+00 0.000D+00 0.100D+01
 Coeff:     -0.640D-01 0.437D+00 0.627D+00
 Gap=     0.329 Goal=   None    Shift=    0.000
 Gap=     0.290 Goal=   None    Shift=    0.000
 RMSDP=3.93D-04 MaxDP=2.73D-02 DE=-2.06D-01 OVMax= 8.44D-02

 Cycle   4  Pass 0  IDiag  1:
 RMSU=  3.56D-04    CP:  9.96D-01  9.21D-01  9.16D-01
 E= -558.890209245325     Delta-E=       -0.012791298670 Rises=F Damp=F
 DIIS: error= 3.22D-03 at cycle   4 NSaved=   4.
 NSaved= 4 IEnMin= 4 EnMin= -558.890209245325     IErMin= 4 ErrMin= 3.22D-03
 ErrMax= 3.22D-03  0.00D+00 EMaxC= 1.00D-01 BMatC= 3.21D-02 BMatP= 1.01D-01
 IDIUse=3 WtCom= 9.68D-01 WtEn= 3.22D-02
 Coeff-Com: -0.222D-01 0.646D-01 0.378D+00 0.579D+00
 Coeff-En:   0.000D+00 0.000D+00 0.263D+00 0.737D+00
 Coeff:     -0.215D-01 0.626D-01 0.375D+00 0.584D+00
 Gap=     0.322 Goal=   None    Shift=    0.000
 Gap=     0.299 Goal=   None    Shift=    0.000
 RMSDP=1.98D-04 MaxDP=1.04D-02 DE=-1.28D-02 OVMax= 2.09D-02

 Cycle   5  Pass 0  IDiag  1:
 RMSU=  1.22D-04    CP:  9.92D-01  9.12D-01  9.38D-01  5.75D-01
 E= -558.896155253788     Delta-E=       -0.005946008463 Rises=F Damp=F
 DIIS: error= 5.59D-04 at cycle   5 NSaved=   5.
 NSaved= 5 IEnMin= 5 EnMin= -558.896155253788     IErMin= 5 ErrMin= 5.59D-04
 ErrMax= 5.59D-04  0.00D+00 EMaxC= 1.00D-01 BMatC= 5.81D-04 BMatP= 3.21D-02
 IDIUse=3 WtCom= 9.94D-01 WtEn= 5.59D-03
 Coeff-Com: -0.468D-02 0.582D-02 0.129D+00 0.220D+00 0.650D+00
 Coeff-En:   0.000D+00 0.000D+00 0.000D+00 0.000D+00 0.100D+01
 Coeff:     -0.465D-02 0.578D-02 0.128D+00 0.219D+00 0.652D+00
 Gap=     0.318 Goal=   None    Shift=    0.000
 Gap=     0.299 Goal=   None    Shift=    0.000
 RMSDP=4.75D-05 MaxDP=6.13D-03 DE=-5.95D-03 OVMax= 7.96D-03

 Cycle   6  Pass 0  IDiag  1:
 RMSU=  3.08D-05    CP:  9.92D-01  8.99D-01  9.57D-01  6.07D-01  9.47D-01
 E= -558.896292385165     Delta-E=       -0.000137131377 Rises=F Damp=F
 DIIS: error= 3.34D-04 at cycle   6 NSaved=   6.
 NSaved= 6 IEnMin= 6 EnMin= -558.896292385165     IErMin= 6 ErrMin= 3.34D-04
 ErrMax= 3.34D-04  0.00D+00 EMaxC= 1.00D-01 BMatC= 1.39D-04 BMatP= 5.81D-04
 IDIUse=3 WtCom= 9.97D-01 WtEn= 3.34D-03
 Coeff-Com:  0.339D-02-0.113D-01-0.193D-01-0.430D-01 0.241D+00 0.829D+00
 Coeff-En:   0.000D+00 0.000D+00 0.000D+00 0.000D+00 0.000D+00 0.100D+01
 Coeff:      0.338D-02-0.112D-01-0.193D-01-0.428D-01 0.241D+00 0.829D+00
 Gap=     0.320 Goal=   None    Shift=    0.000
 Gap=     0.300 Goal=   None    Shift=    0.000
 RMSDP=3.10D-05 MaxDP=2.16D-03 DE=-1.37D-04 OVMax= 4.29D-03

 Cycle   7  Pass 0  IDiag  1:
 RMSU=  1.99D-05    CP:  9.92D-01  9.00D-01  9.57D-01  6.02D-01  1.14D+00
                    CP:  1.11D+00
 E= -558.896341321513     Delta-E=       -0.000048936348 Rises=F Damp=F
 DIIS: error= 1.05D-04 at cycle   7 NSaved=   7.
 NSaved= 7 IEnMin= 7 EnMin= -558.896341321513     IErMin= 7 ErrMin= 1.05D-04
 ErrMax= 1.05D-04  0.00D+00 EMaxC= 1.00D-01 BMatC= 2.20D-05 BMatP= 1.39D-04
 IDIUse=3 WtCom= 9.99D-01 WtEn= 1.05D-03
 Coeff-Com:  0.158D-02-0.274D-02-0.211D-01-0.543D-01-0.888D-01 0.378D-01
 Coeff-Com:  0.113D+01
 Coeff-En:   0.000D+00 0.000D+00 0.000D+00 0.000D+00 0.000D+00 0.000D+00
 Coeff-En:   0.100D+01
 Coeff:      0.158D-02-0.274D-02-0.211D-01-0.542D-01-0.887D-01 0.377D-01
 Coeff:      0.113D+01
 Gap=     0.320 Goal=   None    Shift=    0.000
 Gap=     0.300 Goal=   None    Shift=    0.000
 RMSDP=2.04D-05 MaxDP=1.75D-03 DE=-4.89D-05 OVMax= 3.90D-03

 Cycle   8  Pass 0  IDiag  1:
 RMSU=  7.58D-06    CP:  9.91D-01  8.96D-01  9.60D-01  5.89D-01  1.25D+00
                    CP:  1.35D+00  1.30D+00
 E= -558.896355759718     Delta-E=       -0.000014438206 Rises=F Damp=F
 DIIS: error= 5.58D-05 at cycle   8 NSaved=   8.
 NSaved= 8 IEnMin= 8 EnMin= -558.896355759718     IErMin= 8 ErrMin= 5.58D-05
 ErrMax= 5.58D-05  0.00D+00 EMaxC= 1.00D-01 BMatC= 6.10D-06 BMatP= 2.20D-05
 IDIUse=1 WtCom= 1.00D+00 WtEn= 0.00D+00
 Coeff-Com:  0.268D-03 0.308D-03-0.574D-02-0.205D-01-0.709D-01-0.116D+00
 Coeff-Com:  0.494D+00 0.718D+00
 Coeff:      0.268D-03 0.308D-03-0.574D-02-0.205D-01-0.709D-01-0.116D+00
 Coeff:      0.494D+00 0.718D+00
 Gap=     0.320 Goal=   None    Shift=    0.000
 Gap=     0.301 Goal=   None    Shift=    0.000
 RMSDP=6.61D-06 MaxDP=5.24D-04 DE=-1.44D-05 OVMax= 1.31D-03

 Initial convergence to 1.0D-05 achieved.  Increase integral accuracy.
 Cycle   9  Pass 1  IDiag  1:
 E= -558.896470948323     Delta-E=       -0.000115188605 Rises=F Damp=F
 DIIS: error= 8.24D-05 at cycle   1 NSaved=   1.
 NSaved= 1 IEnMin= 1 EnMin= -558.896470948323     IErMin= 1 ErrMin= 8.24D-05
 ErrMax= 8.24D-05  0.00D+00 EMaxC= 1.00D-01 BMatC= 1.25D-05 BMatP= 1.25D-05
 IDIUse=1 WtCom= 1.00D+00 WtEn= 0.00D+00
 Coeff-Com:  0.100D+01
 Coeff:      0.100D+01
 Gap=     0.320 Goal=   None    Shift=    0.000
 Gap=     0.301 Goal=   None    Shift=    0.000
 RMSDP=6.61D-06 MaxDP=5.24D-04 DE=-1.15D-04 OVMax= 3.06D-04

 Cycle  10  Pass 1  IDiag  1:
 RMSU=  3.66D-05    CP:  1.00D+00
 E= -558.896472342725     Delta-E=       -0.000001394402 Rises=F Damp=F
 DIIS: error= 2.42D-05 at cycle   2 NSaved=   2.
 NSaved= 2 IEnMin= 2 EnMin= -558.896472342725     IErMin= 2 ErrMin= 2.42D-05
 ErrMax= 2.42D-05  0.00D+00 EMaxC= 1.00D-01 BMatC= 1.23D-06 BMatP= 1.25D-05
 IDIUse=1 WtCom= 1.00D+00 WtEn= 0.00D+00
 Coeff-Com:  0.116D+00 0.884D+00
 Coeff:      0.116D+00 0.884D+00
 Gap=     0.320 Goal=   None    Shift=    0.000
 Gap=     0.300 Goal=   None    Shift=    0.000
 RMSDP=3.40D-06 MaxDP=4.30D-04 DE=-1.39D-06 OVMax= 5.78D-04

 Cycle  11  Pass 1  IDiag  1:
 RMSU=  3.01D-06    CP:  1.00D+00  1.04D+00
 E= -558.896472360311     Delta-E=       -0.000000017586 Rises=F Damp=F
 DIIS: error= 3.04D-05 at cycle   3 NSaved=   3.
 NSaved= 3 IEnMin= 3 EnMin= -558.896472360311     IErMin= 2 ErrMin= 2.42D-05
 ErrMax= 3.04D-05  0.00D+00 EMaxC= 1.00D-01 BMatC= 2.10D-06 BMatP= 1.23D-06
 IDIUse=1 WtCom= 1.00D+00 WtEn= 0.00D+00
 Coeff-Com: -0.151D-01 0.576D+00 0.439D+00
 Coeff:     -0.151D-01 0.576D+00 0.439D+00
 Gap=     0.320 Goal=   None    Shift=    0.000
 Gap=     0.301 Goal=   None    Shift=    0.000
 RMSDP=1.83D-06 MaxDP=2.29D-04 DE=-1.76D-08 OVMax= 1.03D-04

 Cycle  12  Pass 1  IDiag  1:
 RMSU=  1.21D-06    CP:  1.00D+00  1.05D+00  5.90D-01
 E= -558.896472756824     Delta-E=       -0.000000396512 Rises=F Damp=F
 DIIS: error= 8.29D-06 at cycle   4 NSaved=   4.
 NSaved= 4 IEnMin= 4 EnMin= -558.896472756824     IErMin= 4 ErrMin= 8.29D-06
 ErrMax= 8.29D-06  0.00D+00 EMaxC= 1.00D-01 BMatC= 5.40D-08 BMatP= 1.23D-06
 IDIUse=1 WtCom= 1.00D+00 WtEn= 0.00D+00
 Coeff-Com: -0.102D-01 0.881D-01 0.376D-01 0.884D+00
 Coeff:     -0.102D-01 0.881D-01 0.376D-01 0.884D+00
 Gap=     0.320 Goal=   None    Shift=    0.000
 Gap=     0.301 Goal=   None    Shift=    0.000
 RMSDP=6.03D-07 MaxDP=5.79D-05 DE=-3.97D-07 OVMax= 1.69D-04

 Cycle  13  Pass 1  IDiag  1:
 RMSU=  3.40D-07    CP:  1.00D+00  1.05D+00  5.75D-01  1.39D+00
 E= -558.896472790526     Delta-E=       -0.000000033703 Rises=F Damp=F
 DIIS: error= 6.60D-06 at cycle   5 NSaved=   5.
 NSaved= 5 IEnMin= 5 EnMin= -558.896472790526     IErMin= 5 ErrMin= 6.60D-06
 ErrMax= 6.60D-06  0.00D+00 EMaxC= 1.00D-01 BMatC= 6.13D-08 BMatP= 5.40D-08
 IDIUse=1 WtCom= 1.00D+00 WtEn= 0.00D+00
 Coeff-Com:  0.623D-02-0.399D+00-0.390D+00 0.668D+00 0.111D+01
 Coeff:      0.623D-02-0.399D+00-0.390D+00 0.668D+00 0.111D+01
 Gap=     0.320 Goal=   None    Shift=    0.000
 Gap=     0.301 Goal=   None    Shift=    0.000
 RMSDP=9.66D-07 MaxDP=5.53D-05 DE=-3.37D-08 OVMax= 1.99D-04

 Cycle  14  Pass 1  IDiag  1:
 RMSU=  3.90D-07    CP:  1.00D+00  1.05D+00  6.30D-01  2.10D+00  1.34D+00
 E= -558.896472821044     Delta-E=       -0.000000030518 Rises=F Damp=F
 DIIS: error= 5.51D-07 at cycle   6 NSaved=   6.
 NSaved= 6 IEnMin= 6 EnMin= -558.896472821044     IErMin= 6 ErrMin= 5.51D-07
 ErrMax= 5.51D-07  0.00D+00 EMaxC= 1.00D-01 BMatC= 1.40D-09 BMatP= 5.40D-08
 IDIUse=1 WtCom= 1.00D+00 WtEn= 0.00D+00
 Coeff-Com:  0.283D-02-0.152D+00-0.150D+00 0.218D+00 0.400D+00 0.681D+00
 Coeff:      0.283D-02-0.152D+00-0.150D+00 0.218D+00 0.400D+00 0.681D+00
 Gap=     0.320 Goal=   None    Shift=    0.000
 Gap=     0.301 Goal=   None    Shift=    0.000
 RMSDP=1.13D-07 MaxDP=1.39D-05 DE=-3.05D-08 OVMax= 2.00D-05

 Cycle  15  Pass 1  IDiag  1:
 RMSU=  7.07D-08    CP:  1.00D+00  1.05D+00  6.13D-01  2.13D+00  1.46D+00
                    CP:  1.08D+00
 E= -558.896472821452     Delta-E=       -0.000000000408 Rises=F Damp=F
 DIIS: error= 2.79D-07 at cycle   7 NSaved=   7.
 NSaved= 7 IEnMin= 7 EnMin= -558.896472821452     IErMin= 7 ErrMin= 2.79D-07
 ErrMax= 2.79D-07  0.00D+00 EMaxC= 1.00D-01 BMatC= 2.59D-10 BMatP= 1.40D-09
 IDIUse=1 WtCom= 1.00D+00 WtEn= 0.00D+00
 Coeff-Com:  0.218D-04 0.104D-01 0.749D-02-0.274D-01-0.468D-01 0.274D+00
 Coeff-Com:  0.782D+00
 Coeff:      0.218D-04 0.104D-01 0.749D-02-0.274D-01-0.468D-01 0.274D+00
 Coeff:      0.782D+00
 Gap=     0.320 Goal=   None    Shift=    0.000
 Gap=     0.301 Goal=   None    Shift=    0.000
 RMSDP=6.24D-08 MaxDP=5.33D-06 DE=-4.08D-10 OVMax= 5.81D-06

 Cycle  16  Pass 1  IDiag  1:
 RMSU=  3.36D-08    CP:  1.00D+00  1.05D+00  6.13D-01  2.12D+00  1.46D+00
                    CP:  1.20D+00  1.02D+00
 E= -558.896472821527     Delta-E=       -0.000000000075 Rises=F Damp=F
 DIIS: error= 9.52D-08 at cycle   8 NSaved=   8.
 NSaved= 8 IEnMin= 8 EnMin= -558.896472821527     IErMin= 8 ErrMin= 9.52D-08
 ErrMax= 9.52D-08  0.00D+00 EMaxC= 1.00D-01 BMatC= 1.06D-11 BMatP= 2.59D-10
 IDIUse=1 WtCom= 1.00D+00 WtEn= 0.00D+00
 Coeff-Com: -0.244D-03 0.154D-01 0.144D-01-0.226D-01-0.467D-01-0.634D-02
 Coeff-Com:  0.147D+00 0.899D+00
 Coeff:     -0.244D-03 0.154D-01 0.144D-01-0.226D-01-0.467D-01-0.634D-02
 Coeff:      0.147D+00 0.899D+00
 Gap=     0.320 Goal=   None    Shift=    0.000
 Gap=     0.301 Goal=   None    Shift=    0.000
 RMSDP=2.12D-08 MaxDP=1.64D-06 DE=-7.53D-11 OVMax= 1.58D-06

 Cycle  17  Pass 1  IDiag  1:
 RMSU=  8.95D-09    CP:  1.00D+00  1.05D+00  6.11D-01  2.12D+00  1.46D+00
                    CP:  1.23D+00  1.14D+00  1.26D+00
 E= -558.896472821531     Delta-E=       -0.000000000004 Rises=F Damp=F
 DIIS: error= 3.26D-08 at cycle   9 NSaved=   9.
 NSaved= 9 IEnMin= 9 EnMin= -558.896472821531     IErMin= 9 ErrMin= 3.26D-08
 ErrMax= 3.26D-08  0.00D+00 EMaxC= 1.00D-01 BMatC= 1.52D-12 BMatP= 1.06D-11
 IDIUse=1 WtCom= 1.00D+00 WtEn= 0.00D+00
 Coeff-Com: -0.753D-04 0.361D-02 0.355D-02-0.406D-02-0.101D-01-0.254D-01
 Coeff-Com: -0.266D-01 0.261D+00 0.799D+00
 Coeff:     -0.753D-04 0.361D-02 0.355D-02-0.406D-02-0.101D-01-0.254D-01
 Coeff:     -0.266D-01 0.261D+00 0.799D+00
 Gap=     0.320 Goal=   None    Shift=    0.000
 Gap=     0.301 Goal=   None    Shift=    0.000
 RMSDP=6.71D-09 MaxDP=5.27D-07 DE=-3.87D-12 OVMax= 3.80D-07

 SCF Done:  E(UM062X) =  -558.896472822     A.U. after   17 cycles
            NFock= 17  Conv=0.67D-08     -V/T= 2.0059
 <Sx>= 0.0000 <Sy>= 0.0000 <Sz>= 0.5000 <S**2>= 0.7559 S= 0.5029
 <L.S>=  0.00000000000    
 KE= 5.556220726143D+02 PE=-2.937394064753D+03 EE= 1.005111890212D+03
 Annihilation of the first spin contaminant:
 S**2 before annihilation     0.7559,   after     0.7500
 Leave Link  502 at Tue Jan  7 16:48:20 2025, MaxMem=  4026531840 cpu:            6141.2 elap:             307.3
 (Enter /usr/local/intel/g16/l601.exe)
 Copying SCF densities to generalized density rwf, IOpCl= 1 IROHF=0.

 **********************************************************************

            Population analysis using the SCF Density.

 **********************************************************************

 Orbital symmetries:
 Alpha Orbitals:
       Occupied  (A) (A) (A) (A) (A) (A) (A) (A) (A) (A) (A) (A)
                 (A) (A) (A) (A) (A) (A) (A) (A) (A) (A) (A) (A)
                 (A) (A) (A) (A) (A) (A) (A) (A) (A) (A) (A) (A)
                 (A) (A) (A) (A) (A) (A) (A) (A) (A) (A) (A) (A)
       Virtual   (A) (A) (A) (A) (A) (A) (A) (A) (A) (A) (A) (A)
                 (A) (A) (A) (A) (A) (A) (A) (A) (A) (A) (A) (A)
                 (A) (A) (A) (A) (A) (A) (A) (A) (A) (A) (A) (A)
                 (A) (A) (A) (A) (A) (A) (A) (A) (A) (A) (A) (A)
                 (A) (A) (A) (A) (A) (A) (A) (A) (A) (A) (A) (A)
                 (A) (A) (A) (A) (A) (A) (A) (A) (A) (A) (A) (A)
                 (A) (A) (A) (A) (A) (A) (A) (A) (A) (A) (A) (A)
                 (A) (A) (A) (A) (A) (A) (A) (A) (A) (A) (A) (A)
                 (A) (A) (A) (A) (A) (A) (A) (A) (A) (A) (A) (A)
                 (A) (A) (A) (A) (A) (A) (A) (A) (A) (A) (A) (A)
                 (A) (A) (A) (A) (A) (A) (A) (A) (A) (A) (A) (A)
                 (A) (A) (A) (A) (A) (A) (A) (A) (A) (A) (A) (A)
                 (A) (A) (A) (A) (A) (A) (A) (A) (A) (A) (A) (A)
                 (A) (A) (A) (A) (A) (A) (A) (A) (A) (A) (A) (A)
                 (A) (A) (A) (A) (A) (A) (A) (A) (A) (A) (A) (A)
                 (A) (A) (A) (A) (A) (A) (A) (A) (A) (A) (A) (A)
                 (A) (A) (A) (A) (A) (A) (A) (A) (A) (A) (A) (A)
                 (A) (A) (A) (A) (A) (A) (A) (A) (A) (A) (A) (A)
                 (A) (A) (A) (A) (A) (A) (A) (A) (A) (A) (A) (A)
                 (A) (A) (A) (A) (A) (A) (A) (A) (A) (A) (A) (A)
                 (A) (A) (A) (A) (A) (A) (A) (A) (A) (A) (A) (A)
                 (A) (A) (A) (A) (A) (A) (A) (A) (A) (A) (A) (A)
                 (A) (A) (A) (A) (A) (A) (A) (A) (A) (A) (A) (A)
                 (A) (A) (A) (A) (A) (A) (A) (A) (A) (A) (A) (A)
                 (A) (A) (A) (A) (A) (A) (A) (A) (A) (A) (A) (A)
                 (A) (A) (A) (A) (A) (A) (A) (A) (A) (A) (A) (A)
                 (A) (A) (A) (A) (A) (A) (A) (A) (A) (A) (A) (A)
                 (A) (A) (A) (A) (A) (A) (A) (A) (A) (A) (A) (A)
                 (A) (A) (A) (A) (A) (A) (A) (A) (A) (A) (A) (A)
                 (A) (A) (A) (A) (A) (A) (A) (A) (A) (A) (A) (A)
                 (A) (A) (A) (A) (A) (A) (A) (A) (A) (A) (A) (A)
                 (A) (A) (A) (A) (A) (A) (A) (A) (A) (A) (A) (A)
                 (A) (A) (A) (A) (A) (A) (A) (A) (A) (A) (A) (A)
                 (A) (A) (A) (A) (A) (A) (A) (A) (A) (A) (A) (A)
                 (A) (A) (A) (A) (A) (A) (A) (A) (A) (A) (A) (A)
                 (A) (A) (A) (A) (A) (A) (A) (A) (A) (A) (A) (A)
 Beta  Orbitals:
       Occupied  (A) (A) (A) (A) (A) (A) (A) (A) (A) (A) (A) (A)
                 (A) (A) (A) (A) (A) (A) (A) (A) (A) (A) (A) (A)
                 (A) (A) (A) (A) (A) (A) (A) (A) (A) (A) (A) (A)
                 (A) (A) (A) (A) (A) (A) (A) (A) (A) (A) (A)
       Virtual   (A) (A) (A) (A) (A) (A) (A) (A) (A) (A) (A) (A)
                 (A) (A) (A) (A) (A) (A) (A) (A) (A) (A) (A) (A)
                 (A) (A) (A) (A) (A) (A) (A) (A) (A) (A) (A) (A)
                 (A) (A) (A) (A) (A) (A) (A) (A) (A) (A) (A) (A)
                 (A) (A) (A) (A) (A) (A) (A) (A) (A) (A) (A) (A)
                 (A) (A) (A) (A) (A) (A) (A) (A) (A) (A) (A) (A)
                 (A) (A) (A) (A) (A) (A) (A) (A) (A) (A) (A) (A)
                 (A) (A) (A) (A) (A) (A) (A) (A) (A) (A) (A) (A)
                 (A) (A) (A) (A) (A) (A) (A) (A) (A) (A) (A) (A)
                 (A) (A) (A) (A) (A) (A) (A) (A) (A) (A) (A) (A)
                 (A) (A) (A) (A) (A) (A) (A) (A) (A) (A) (A) (A)
                 (A) (A) (A) (A) (A) (A) (A) (A) (A) (A) (A) (A)
                 (A) (A) (A) (A) (A) (A) (A) (A) (A) (A) (A) (A)
                 (A) (A) (A) (A) (A) (A) (A) (A) (A) (A) (A) (A)
                 (A) (A) (A) (A) (A) (A) (A) (A) (A) (A) (A) (A)
                 (A) (A) (A) (A) (A) (A) (A) (A) (A) (A) (A) (A)
                 (A) (A) (A) (A) (A) (A) (A) (A) (A) (A) (A) (A)
                 (A) (A) (A) (A) (A) (A) (A) (A) (A) (A) (A) (A)
                 (A) (A) (A) (A) (A) (A) (A) (A) (A) (A) (A) (A)
                 (A) (A) (A) (A) (A) (A) (A) (A) (A) (A) (A) (A)
                 (A) (A) (A) (A) (A) (A) (A) (A) (A) (A) (A) (A)
                 (A) (A) (A) (A) (A) (A) (A) (A) (A) (A) (A) (A)
                 (A) (A) (A) (A) (A) (A) (A) (A) (A) (A) (A) (A)
                 (A) (A) (A) (A) (A) (A) (A) (A) (A) (A) (A) (A)
                 (A) (A) (A) (A) (A) (A) (A) (A) (A) (A) (A) (A)
                 (A) (A) (A) (A) (A) (A) (A) (A) (A) (A) (A) (A)
                 (A) (A) (A) (A) (A) (A) (A) (A) (A) (A) (A) (A)
                 (A) (A) (A) (A) (A) (A) (A) (A) (A) (A) (A) (A)
                 (A) (A) (A) (A) (A) (A) (A) (A) (A) (A) (A) (A)
                 (A) (A) (A) (A) (A) (A) (A) (A) (A) (A) (A) (A)
                 (A) (A) (A) (A) (A) (A) (A) (A) (A) (A) (A) (A)
                 (A) (A) (A) (A) (A) (A) (A) (A) (A) (A) (A) (A)
                 (A) (A) (A) (A) (A) (A) (A) (A) (A) (A) (A) (A)
                 (A) (A) (A) (A) (A) (A) (A) (A) (A) (A) (A) (A)
                 (A) (A) (A) (A) (A) (A) (A) (A) (A) (A) (A) (A)
                 (A) (A) (A) (A) (A) (A) (A) (A) (A) (A) (A) (A)
                 (A)
 The electronic state is 2-A.
 Alpha  occ. eigenvalues --  -19.63180 -19.62762 -14.83563 -10.60133 -10.59728
 Alpha  occ. eigenvalues --  -10.59533 -10.54731 -10.54253 -10.53559 -10.53331
 Alpha  occ. eigenvalues --  -10.52836 -10.52624  -1.19458  -1.14049  -0.97624
 Alpha  occ. eigenvalues --   -0.92367  -0.86333  -0.81963  -0.79118  -0.78446
 Alpha  occ. eigenvalues --   -0.78045  -0.69280  -0.68241  -0.61436  -0.58630
 Alpha  occ. eigenvalues --   -0.56741  -0.56051  -0.54820  -0.52723  -0.51302
 Alpha  occ. eigenvalues --   -0.50012  -0.49473  -0.47850  -0.47373  -0.46218
 Alpha  occ. eigenvalues --   -0.45781  -0.44356  -0.43746  -0.43686  -0.43167
 Alpha  occ. eigenvalues --   -0.41851  -0.40655  -0.39934  -0.39816  -0.38212
 Alpha  occ. eigenvalues --   -0.35360  -0.33645  -0.27018
 Alpha virt. eigenvalues --    0.05007   0.06200   0.07827   0.08313   0.09695
 Alpha virt. eigenvalues --    0.11286   0.12006   0.12188   0.13310   0.13804
 Alpha virt. eigenvalues --    0.14012   0.14755   0.15207   0.15653   0.16527
 Alpha virt. eigenvalues --    0.17163   0.17834   0.18221   0.18539   0.19198
 Alpha virt. eigenvalues --    0.19764   0.20208   0.20924   0.22255   0.22562
 Alpha virt. eigenvalues --    0.23045   0.24347   0.24946   0.25588   0.27214
 Alpha virt. eigenvalues --    0.27487   0.27717   0.28220   0.30104   0.30575
 Alpha virt. eigenvalues --    0.31249   0.33871   0.34569   0.35701   0.35833
 Alpha virt. eigenvalues --    0.36582   0.37291   0.38570   0.38870   0.39341
 Alpha virt. eigenvalues --    0.39899   0.40252   0.41875   0.42326   0.42945
 Alpha virt. eigenvalues --    0.43944   0.44304   0.45237   0.46254   0.46711
 Alpha virt. eigenvalues --    0.46859   0.47545   0.48023   0.48539   0.49133
 Alpha virt. eigenvalues --    0.49599   0.49747   0.50125   0.50417   0.51101
 Alpha virt. eigenvalues --    0.52059   0.52477   0.52633   0.53245   0.53562
 Alpha virt. eigenvalues --    0.55502   0.55763   0.56539   0.57621   0.58491
 Alpha virt. eigenvalues --    0.59799   0.60984   0.62140   0.63257   0.63867
 Alpha virt. eigenvalues --    0.65575   0.66930   0.68949   0.69611   0.70802
 Alpha virt. eigenvalues --    0.71826   0.72830   0.74068   0.75820   0.76784
 Alpha virt. eigenvalues --    0.78911   0.80722   0.81218   0.82697   0.84456
 Alpha virt. eigenvalues --    0.85803   0.87258   0.88431   0.88634   0.91642
 Alpha virt. eigenvalues --    0.92193   0.92790   0.93741   0.95161   0.95504
 Alpha virt. eigenvalues --    0.96651   0.97692   0.98241   0.99337   0.99796
 Alpha virt. eigenvalues --    1.01545   1.02338   1.05004   1.06328   1.07111
 Alpha virt. eigenvalues --    1.07798   1.08399   1.10783   1.12302   1.13920
 Alpha virt. eigenvalues --    1.15860   1.17974   1.18744   1.19755   1.20212
 Alpha virt. eigenvalues --    1.21520   1.23966   1.24794   1.25754   1.28306
 Alpha virt. eigenvalues --    1.29508   1.32036   1.32529   1.33730   1.34971
 Alpha virt. eigenvalues --    1.37042   1.37440   1.38314   1.39979   1.41627
 Alpha virt. eigenvalues --    1.43827   1.45153   1.47874   1.50614   1.53495
 Alpha virt. eigenvalues --    1.54015   1.56685   1.57161   1.58609   1.59312
 Alpha virt. eigenvalues --    1.59946   1.61168   1.61718   1.62872   1.63184
 Alpha virt. eigenvalues --    1.63501   1.64111   1.65400   1.66289   1.66856
 Alpha virt. eigenvalues --    1.67467   1.68002   1.68872   1.69550   1.70011
 Alpha virt. eigenvalues --    1.71121   1.72101   1.73511   1.74441   1.75235
 Alpha virt. eigenvalues --    1.76956   1.79107   1.80040   1.81842   1.84013
 Alpha virt. eigenvalues --    1.86047   1.87506   1.87876   1.92103   1.92913
 Alpha virt. eigenvalues --    1.94211   1.96607   1.97065   1.97716   1.99270
 Alpha virt. eigenvalues --    2.00283   2.02519   2.03854   2.06202   2.06787
 Alpha virt. eigenvalues --    2.08642   2.09670   2.10771   2.11953   2.14053
 Alpha virt. eigenvalues --    2.15235   2.16461   2.18019   2.18589   2.20523
 Alpha virt. eigenvalues --    2.21553   2.22706   2.23029   2.24720   2.25757
 Alpha virt. eigenvalues --    2.27674   2.28150   2.28971   2.30540   2.31029
 Alpha virt. eigenvalues --    2.31965   2.32533   2.34505   2.34942   2.35763
 Alpha virt. eigenvalues --    2.36764   2.37046   2.37871   2.39175   2.39894
 Alpha virt. eigenvalues --    2.40652   2.43126   2.44343   2.45287   2.46058
 Alpha virt. eigenvalues --    2.47313   2.48741   2.49810   2.50585   2.53182
 Alpha virt. eigenvalues --    2.54267   2.55278   2.55768   2.56117   2.57729
 Alpha virt. eigenvalues --    2.58376   2.58633   2.60398   2.61319   2.61679
 Alpha virt. eigenvalues --    2.62993   2.64275   2.65418   2.65889   2.66569
 Alpha virt. eigenvalues --    2.67646   2.68502   2.69781   2.70298   2.72760
 Alpha virt. eigenvalues --    2.73508   2.73747   2.74221   2.75569   2.75950
 Alpha virt. eigenvalues --    2.78247   2.80000   2.80537   2.81535   2.84160
 Alpha virt. eigenvalues --    2.85406   2.86199   2.86664   2.88350   2.89250
 Alpha virt. eigenvalues --    2.92702   2.94732   2.95401   2.97965   2.99684
 Alpha virt. eigenvalues --    3.03316   3.03943   3.04372   3.05537   3.06929
 Alpha virt. eigenvalues --    3.10368   3.12285   3.13381   3.14598   3.14866
 Alpha virt. eigenvalues --    3.17296   3.17940   3.18547   3.19207   3.21394
 Alpha virt. eigenvalues --    3.23184   3.24677   3.27057   3.27134   3.28908
 Alpha virt. eigenvalues --    3.29482   3.30835   3.31420   3.32506   3.33089
 Alpha virt. eigenvalues --    3.34367   3.35792   3.36210   3.36826   3.37928
 Alpha virt. eigenvalues --    3.38093   3.38477   3.39474   3.40389   3.40899
 Alpha virt. eigenvalues --    3.42172   3.43085   3.43495   3.46753   3.47491
 Alpha virt. eigenvalues --    3.47788   3.50217   3.50845   3.52629   3.53043
 Alpha virt. eigenvalues --    3.54180   3.57187   3.57743   3.59283   3.60761
 Alpha virt. eigenvalues --    3.62496   3.62794   3.66185   3.69327   3.70286
 Alpha virt. eigenvalues --    3.71768   3.73083   3.74714   3.76327   3.78947
 Alpha virt. eigenvalues --    3.79454   3.81553   3.83510   3.84209   3.90060
 Alpha virt. eigenvalues --    3.92581   3.94108   3.96765   3.97523   4.00080
 Alpha virt. eigenvalues --    4.00647   4.01717   4.02444   4.06727   4.07193
 Alpha virt. eigenvalues --    4.09232   4.09988   4.10365   4.12451   4.15396
 Alpha virt. eigenvalues --    4.17755   4.19244   4.21953   4.22565   4.26200
 Alpha virt. eigenvalues --    4.26882   4.28993   4.30301   4.30657   4.34871
 Alpha virt. eigenvalues --    4.35165   4.36751   4.38054   4.39373   4.42897
 Alpha virt. eigenvalues --    4.43762   4.44067   4.44682   4.46607   4.50699
 Alpha virt. eigenvalues --    4.51909   4.55058   4.58813   4.62595   4.66943
 Alpha virt. eigenvalues --    4.70242   4.71881   4.72565   4.76345   4.81508
 Alpha virt. eigenvalues --    4.83113   4.84616   4.89029   4.93722   4.96529
 Alpha virt. eigenvalues --    4.98698   5.01102   5.03562   5.06417   5.08911
 Alpha virt. eigenvalues --    5.18200   5.21378   5.25752   5.28942   5.33396
 Alpha virt. eigenvalues --    5.37352   5.43351   5.46691   5.49184   5.55105
 Alpha virt. eigenvalues --    5.58315   5.70883   5.75459   5.76508   5.79531
 Alpha virt. eigenvalues --    5.83970   6.11378   6.25119   6.28992   6.40994
 Alpha virt. eigenvalues --    6.41145   6.48398   6.68034   6.77146   6.81981
 Alpha virt. eigenvalues --    6.95191   6.98603   6.98828   7.14975   7.62777
 Alpha virt. eigenvalues --   22.48281  22.50842  22.51950  22.59232  22.63571
 Alpha virt. eigenvalues --   22.69077  22.71966  22.75549  22.82481  32.91677
 Alpha virt. eigenvalues --   44.07637  44.14946
  Beta  occ. eigenvalues --  -19.63180 -19.61668 -14.82781 -10.60134 -10.59759
  Beta  occ. eigenvalues --  -10.59563 -10.54729 -10.54251 -10.53525 -10.53296
  Beta  occ. eigenvalues --  -10.52824 -10.52612  -1.16440  -1.14040  -0.96337
  Beta  occ. eigenvalues --   -0.92207  -0.85648  -0.80378  -0.78942  -0.78388
  Beta  occ. eigenvalues --   -0.77966  -0.69093  -0.67757  -0.61061  -0.58292
  Beta  occ. eigenvalues --   -0.55810  -0.55502  -0.52829  -0.51705  -0.50992
  Beta  occ. eigenvalues --   -0.49973  -0.49154  -0.46999  -0.46652  -0.46065
  Beta  occ. eigenvalues --   -0.45605  -0.43799  -0.43390  -0.43272  -0.42159
  Beta  occ. eigenvalues --   -0.41549  -0.39990  -0.39750  -0.38183  -0.35949
  Beta  occ. eigenvalues --   -0.35261  -0.31932
  Beta virt. eigenvalues --   -0.01878   0.05080   0.06166   0.07809   0.08313
  Beta virt. eigenvalues --    0.09731   0.11322   0.11959   0.12213   0.13228
  Beta virt. eigenvalues --    0.13840   0.14253   0.14833   0.15391   0.15645
  Beta virt. eigenvalues --    0.16641   0.17166   0.17882   0.18276   0.18578
  Beta virt. eigenvalues --    0.19246   0.19948   0.20212   0.21177   0.22450
  Beta virt. eigenvalues --    0.22692   0.23046   0.24718   0.25041   0.25761
  Beta virt. eigenvalues --    0.27278   0.27636   0.28016   0.28580   0.30253
  Beta virt. eigenvalues --    0.30628   0.31549   0.34031   0.34797   0.35710
  Beta virt. eigenvalues --    0.36187   0.36730   0.37531   0.38517   0.38981
  Beta virt. eigenvalues --    0.39415   0.39957   0.40430   0.41954   0.42411
  Beta virt. eigenvalues --    0.43169   0.43996   0.44294   0.45316   0.46352
  Beta virt. eigenvalues --    0.46684   0.46907   0.47639   0.48055   0.48548
  Beta virt. eigenvalues --    0.49143   0.49709   0.49829   0.50167   0.50468
  Beta virt. eigenvalues --    0.51214   0.52084   0.52497   0.52660   0.53383
  Beta virt. eigenvalues --    0.53664   0.55645   0.55953   0.56672   0.57680
  Beta virt. eigenvalues --    0.58547   0.60053   0.61250   0.62416   0.63757
  Beta virt. eigenvalues --    0.63893   0.65644   0.66997   0.69309   0.69842
  Beta virt. eigenvalues --    0.70770   0.72054   0.72912   0.74119   0.75877
  Beta virt. eigenvalues --    0.76915   0.78966   0.80823   0.81304   0.82733
  Beta virt. eigenvalues --    0.84570   0.85954   0.87310   0.88487   0.88753
  Beta virt. eigenvalues --    0.91721   0.92240   0.92864   0.93763   0.95277
  Beta virt. eigenvalues --    0.95658   0.96785   0.97700   0.98467   0.99504
  Beta virt. eigenvalues --    0.99969   1.01576   1.02544   1.05197   1.06360
  Beta virt. eigenvalues --    1.07395   1.07882   1.08573   1.10885   1.12333
  Beta virt. eigenvalues --    1.13871   1.15890   1.18063   1.18793   1.19898
  Beta virt. eigenvalues --    1.20262   1.21759   1.24069   1.24996   1.25853
  Beta virt. eigenvalues --    1.28550   1.29533   1.32028   1.32610   1.33809
  Beta virt. eigenvalues --    1.35115   1.37162   1.37551   1.38399   1.40214
  Beta virt. eigenvalues --    1.41680   1.44186   1.45242   1.48395   1.50654
  Beta virt. eigenvalues --    1.53652   1.54051   1.56939   1.57547   1.58683
  Beta virt. eigenvalues --    1.59408   1.60031   1.61197   1.61813   1.62981
  Beta virt. eigenvalues --    1.63321   1.63590   1.64164   1.65641   1.66367
  Beta virt. eigenvalues --    1.66942   1.67624   1.68070   1.68951   1.69715
  Beta virt. eigenvalues --    1.70132   1.71402   1.72230   1.73669   1.74723
  Beta virt. eigenvalues --    1.75303   1.77189   1.79132   1.80235   1.82134
  Beta virt. eigenvalues --    1.84132   1.86116   1.87796   1.87992   1.92398
  Beta virt. eigenvalues --    1.93040   1.94676   1.96729   1.97120   1.97869
  Beta virt. eigenvalues --    1.99503   2.00443   2.02575   2.03995   2.06226
  Beta virt. eigenvalues --    2.06798   2.08797   2.09772   2.10881   2.12003
  Beta virt. eigenvalues --    2.14222   2.15301   2.16535   2.18112   2.18674
  Beta virt. eigenvalues --    2.20567   2.22006   2.22979   2.23343   2.24853
  Beta virt. eigenvalues --    2.25840   2.27938   2.28302   2.29405   2.30647
  Beta virt. eigenvalues --    2.31197   2.32021   2.32713   2.34559   2.34986
  Beta virt. eigenvalues --    2.35798   2.36839   2.37082   2.37925   2.39251
  Beta virt. eigenvalues --    2.39993   2.40728   2.43258   2.44559   2.45556
  Beta virt. eigenvalues --    2.46331   2.47348   2.48787   2.49875   2.50622
  Beta virt. eigenvalues --    2.53256   2.54342   2.55368   2.55826   2.56259
  Beta virt. eigenvalues --    2.57821   2.58498   2.58688   2.60579   2.61402
  Beta virt. eigenvalues --    2.61728   2.63043   2.64322   2.65443   2.65939
  Beta virt. eigenvalues --    2.66670   2.68435   2.68599   2.70129   2.70562
  Beta virt. eigenvalues --    2.72958   2.73618   2.73810   2.74875   2.75761
  Beta virt. eigenvalues --    2.76025   2.78394   2.80057   2.80748   2.82023
  Beta virt. eigenvalues --    2.84253   2.85523   2.86308   2.87454   2.89280
  Beta virt. eigenvalues --    2.90737   2.93373   2.95145   2.95472   2.98005
  Beta virt. eigenvalues --    2.99720   3.03437   3.04003   3.04516   3.05738
  Beta virt. eigenvalues --    3.06996   3.10753   3.12329   3.13445   3.14751
  Beta virt. eigenvalues --    3.14982   3.17354   3.18060   3.18596   3.19258
  Beta virt. eigenvalues --    3.21465   3.23293   3.24842   3.27175   3.27460
  Beta virt. eigenvalues --    3.29062   3.29704   3.30967   3.31499   3.32678
  Beta virt. eigenvalues --    3.33143   3.34485   3.35856   3.36268   3.36858
  Beta virt. eigenvalues --    3.37995   3.38179   3.38592   3.39535   3.40441
  Beta virt. eigenvalues --    3.40971   3.42229   3.43187   3.43575   3.46883
  Beta virt. eigenvalues --    3.47551   3.47902   3.50261   3.50880   3.52634
  Beta virt. eigenvalues --    3.53062   3.54232   3.57374   3.57818   3.59459
  Beta virt. eigenvalues --    3.60780   3.62547   3.62898   3.66268   3.69451
  Beta virt. eigenvalues --    3.70370   3.71803   3.73205   3.74927   3.76320
  Beta virt. eigenvalues --    3.78879   3.79527   3.81640   3.83582   3.84206
  Beta virt. eigenvalues --    3.90172   3.92678   3.94230   3.96861   3.97711
  Beta virt. eigenvalues --    4.00174   4.00866   4.01862   4.02489   4.06806
  Beta virt. eigenvalues --    4.07189   4.09511   4.10088   4.10459   4.12443
  Beta virt. eigenvalues --    4.15425   4.17801   4.19421   4.21974   4.22815
  Beta virt. eigenvalues --    4.26333   4.27002   4.29080   4.30378   4.30674
  Beta virt. eigenvalues --    4.35055   4.35368   4.37081   4.38371   4.39419
  Beta virt. eigenvalues --    4.42921   4.43845   4.44130   4.44840   4.46660
  Beta virt. eigenvalues --    4.50696   4.52079   4.55080   4.58915   4.62703
  Beta virt. eigenvalues --    4.66987   4.70222   4.71990   4.73875   4.77979
  Beta virt. eigenvalues --    4.81567   4.83254   4.84903   4.88839   4.95279
  Beta virt. eigenvalues --    4.96538   4.98736   5.01764   5.03557   5.08671
  Beta virt. eigenvalues --    5.08842   5.20445   5.23392   5.27662   5.29082
  Beta virt. eigenvalues --    5.34812   5.37525   5.43784   5.47679   5.49212
  Beta virt. eigenvalues --    5.56812   5.58245   5.70997   5.75732   5.76858
  Beta virt. eigenvalues --    5.80094   5.84157   6.13859   6.25164   6.29107
  Beta virt. eigenvalues --    6.46833   6.47764   6.48646   6.68040   6.77156
  Beta virt. eigenvalues --    6.86252   6.98210   6.98410   6.98835   7.14977
  Beta virt. eigenvalues --    7.62757  22.48311  22.50849  22.51960  22.59265
  Beta virt. eigenvalues --   22.63575  22.69079  22.71967  22.75490  22.82422
  Beta virt. eigenvalues --   32.91813  44.07694  44.14975
          Condensed to atoms (all electrons):
               1          2          3          4          5          6
     1  O    8.281590   0.158869  -0.033432   0.008406   0.002142   0.006355
     2  N    0.158869   6.643531   0.180890  -0.003175  -0.041312   0.014049
     3  C   -0.033432   0.180890   5.577950  -0.044774  -0.008967   0.041698
     4  C    0.008406  -0.003175  -0.044774   5.795217   0.143524  -0.032835
     5  C    0.002142  -0.041312  -0.008967   0.143524   5.188702  -0.090021
     6  C    0.006355   0.014049   0.041698  -0.032835  -0.090021   6.023318
     7  C   -0.028814   0.146611  -0.067515   0.032136   0.095997  -0.088682
     8  C   -0.003585  -0.073766   0.220332  -0.065389   0.012071  -0.005158
     9  C   -0.023854  -0.054785   0.295549  -0.082612   0.002531  -0.003628
    10  C   -0.023697  -0.053358   0.000063   0.000009   0.002971  -0.093671
    11  C   -0.003412  -0.068699   0.000519  -0.003010   0.003363  -0.062082
    12  H   -0.000310   0.005318  -0.025208   0.426593  -0.063247   0.017890
    13  H   -0.000184  -0.005505  -0.022942   0.397430  -0.017881  -0.025169
    14  H   -0.000075  -0.002561   0.012953  -0.106890   0.528927  -0.119449
    15  O    0.000004   0.000014   0.018816  -0.053379   0.287808  -0.085829
    16  H   -0.000260   0.004821  -0.002033   0.011618  -0.041060   0.421754
    17  H   -0.000211  -0.005654   0.006481  -0.019434  -0.012744   0.388225
    18  H    0.007402  -0.008973  -0.024039   0.012463  -0.000496  -0.000015
    19  H   -0.002054  -0.000629  -0.019442  -0.015746  -0.001037   0.000442
    20  H    0.001274   0.009717  -0.037654  -0.010362  -0.000161  -0.000113
    21  H    0.000151  -0.007575  -0.015979  -0.009511   0.005110  -0.004442
    22  H    0.011581  -0.006656  -0.038177   0.012527  -0.000314  -0.000105
    23  H    0.000131   0.009634  -0.032487  -0.010310   0.000506   0.000249
    24  H    0.000110   0.009605  -0.000463   0.000221   0.000526  -0.009916
    25  H    0.011464  -0.007010  -0.000005  -0.000262  -0.000513   0.013433
    26  H    0.000159  -0.007335   0.003474  -0.003176   0.001613  -0.006788
    27  H   -0.002055  -0.000316   0.000514   0.000209  -0.000869  -0.016366
    28  H    0.007371  -0.009759   0.000522  -0.000164  -0.000473   0.014352
    29  H    0.001189   0.009657   0.000350  -0.000116  -0.000204  -0.011184
    30  H   -0.000001   0.000029   0.001749  -0.003125  -0.050446   0.023799
               7          8          9         10         11         12
     1  O   -0.028814  -0.003585  -0.023854  -0.023697  -0.003412  -0.000310
     2  N    0.146611  -0.073766  -0.054785  -0.053358  -0.068699   0.005318
     3  C   -0.067515   0.220332   0.295549   0.000063   0.000519  -0.025208
     4  C    0.032136  -0.065389  -0.082612   0.000009  -0.003010   0.426593
     5  C    0.095997   0.012071   0.002531   0.002971   0.003363  -0.063247
     6  C   -0.088682  -0.005158  -0.003628  -0.093671  -0.062082   0.017890
     7  C    5.559712   0.003877   0.002745   0.309253   0.227161  -0.002268
     8  C    0.003877   5.263139  -0.103613  -0.002484   0.003741  -0.007830
     9  C    0.002745  -0.103613   5.209033  -0.005335  -0.002494  -0.005651
    10  C    0.309253  -0.002484  -0.005335   5.201184  -0.106349  -0.000132
    11  C    0.227161   0.003741  -0.002494  -0.106349   5.258236   0.000281
    12  H   -0.002268  -0.007830  -0.005651  -0.000132   0.000281   0.500328
    13  H    0.008002  -0.011673   0.008796   0.000232  -0.000991  -0.013859
    14  H    0.015063  -0.001521   0.000524   0.000934  -0.001781  -0.004089
    15  O    0.007343  -0.000670  -0.000367  -0.000263  -0.000486  -0.000866
    16  H   -0.031504   0.000240   0.000009  -0.003736  -0.007745  -0.000334
    17  H   -0.023237  -0.000729   0.000229   0.008788  -0.012387  -0.000489
    18  H    0.000053   0.406727  -0.009645   0.000151  -0.000079  -0.000157
    19  H    0.000327   0.395368   0.013058   0.000113  -0.000412   0.000485
    20  H    0.000314   0.409119  -0.012687   0.000056   0.000011   0.002678
    21  H    0.003092   0.015105   0.383144  -0.003676  -0.000248  -0.000254
    22  H   -0.000625  -0.017272   0.420304   0.000700  -0.000285  -0.000281
    23  H   -0.000492  -0.013701   0.416195  -0.000032   0.000065   0.002461
    24  H   -0.032587   0.000058  -0.000030   0.416479  -0.012863  -0.000009
    25  H   -0.039795  -0.000257   0.000563   0.421031  -0.017087   0.000007
    26  H   -0.016261  -0.000179  -0.004348   0.381807   0.015403   0.000159
    27  H   -0.018457  -0.000447   0.000121   0.013063   0.393913  -0.000000
[...]
 0.00018121,-0.00023883,0.00012313,0.00009037,-0.00060697,0.00031643,0.
 00010171,-0.00018152,0.00029973,-0.00004573,-0.00000922,0.00003894,-0.
 00001700,0.00000906,0.00001338,0.00002382,0.00000070,-0.00005947,0.000
 00073,0.00023057,-0.00010916,0.00021042,-0.00003105,0.00006589,0.00001
 404,0.00005722,-0.00011357,0.00011211,-0.07268552,0.31988703,-0.000347
 35,0.00001495,0.00057120,0.00119554,0.00373239,-0.00644020,-0.00068992
 ,-0.00072468,-0.00060262,-0.00011501,0.00003844,0.00007124,-0.00006228
 ,-0.00000915,-0.00017707,-0.00097775,0.00013614,0.00080629,-0.00822944
 ,0.02882081,-0.00420281,0.00015902,0.00032647,0.00015623,-0.00027202,-
 0.00009790,-0.00029620,-0.00806669,0.03019929,-0.04965754,-0.00019669,
 0.00086094,0.00107331,0.00009710,-0.00002118,-0.00001802,-0.00002234,0
 .00000437,0.00000876,0.00002703,-0.00004617,0.00007532,-0.00002007,-0.
 00005253,0.00009948,0.00062689,-0.00028118,0.00010722,-0.00004749,-0.0
 0033783,0.00015213,-0.00000548,-0.00007318,-0.00000217,0.00000905,-0.0
 0003526,0.00005801,-0.00001835,0.00014039,-0.00004471,0.00031789,-0.00
 007824,0.00027948,-0.00006216,0.00005472,-0.00008644,0.00004606,-0.000
 11590,0.00024632,0.00925986,-0.03550463,0.05553507,0.00136849,0.000447
 73,-0.00095363,-0.00127358,0.00054159,-0.00064882,-0.00017931,0.000021
 99,0.00024114,-0.00008331,0.00002146,0.00003973,0.00023966,0.00028872,
 -0.00018162,0.00108358,-0.00015725,0.00101769,-0.00622988,-0.00014763,
 0.00168073,0.00007435,-0.00001483,-0.00003156,-0.00001100,-0.00001867,
 -0.00003588,-0.30565028,0.02886441,0.05674410,0.00045393,-0.00007725,-
 0.00045108,0.00000681,-0.00004999,0.00000680,0.00003119,-0.00003797,-0
 .00000291,0.00007008,0.00009333,0.00016616,-0.00025467,-0.00015379,0.0
 0012149,0.00025125,-0.00010252,-0.00016481,-0.00025283,-0.00013053,0.0
 0010070,0.00001827,-0.00001786,0.00001653,-0.00000934,0.00000052,-0.00
 001189,-0.00000261,0.00001459,0.00000626,-0.00019177,-0.00002846,0.000
 07336,0.00011669,-0.00017770,0.00007448,0.00006245,0.00003255,-0.00006
 556,-0.00550330,0.00004580,0.00085003,0.32962725,0.00021566,-0.0002680
 5,-0.00017308,-0.00123854,0.00053631,-0.00034752,-0.00023324,-0.000227
 81,0.00026048,-0.00004049,0.00011975,0.00010111,0.00009159,0.00020185,
 -0.00040284,0.00030502,-0.00042668,0.00189115,-0.00913265,-0.00094207,
 0.00347969,0.00005392,0.00000748,-0.00000138,0.00008593,0.00023806,0.0
 0002311,0.03039258,-0.05031108,-0.00868429,0.00062366,-0.00035869,-0.0
 0051229,0.00001755,-0.00000538,0.00000137,0.00004850,-0.00005228,0.000
 01362,0.00009807,0.00008026,0.00029354,-0.00020351,-0.00010149,0.00017
 906,-0.00021893,0.00024871,-0.00009991,-0.00057955,0.00025942,0.000117
 61,0.00002338,-0.00003898,0.00001872,-0.00000699,-0.00000903,-0.000019
 87,0.00000834,0.00002691,-0.00000054,-0.00017339,0.00019715,-0.0000056
 1,0.00014917,-0.00026631,0.00001557,0.00009676,0.00006097,-0.00005153,
 0.03008655,-0.00177350,-0.00720708,-0.03179060,0.05060625,-0.00123163,
 -0.00054383,0.00052911,0.00170586,-0.00144553,0.00211444,0.00016459,0.
 00040268,-0.00017307,0.00002566,-0.00003688,0.00006990,-0.00019055,-0.
 00074792,-0.00088244,-0.00035012,0.00154037,-0.00607365,0.03145871,-0.
 00326774,-0.00843906,-0.00004025,-0.00004915,-0.00002568,-0.00001373,-
 0.00004837,0.00000959,0.05330094,-0.00728151,-0.05763951,0.00114266,0.
 00042957,0.00150271,-0.00005781,0.00005782,0.00000170,0.00002608,-0.00
 007223,0.00006207,0.00010867,0.00019140,0.00036210,0.00008501,0.000262
 05,0.00034105,-0.00031709,0.00000965,-0.00003738,0.00183574,0.00038857
 ,-0.00039088,-0.00002034,0.00004465,0.00000252,0.00000998,0.00001550,-
 0.00001892,-0.00001837,-0.00004595,0.00000145,-0.00013322,0.00016424,-
 0.00003325,0.00007077,-0.00000681,0.00011457,0.00001518,-0.00001578,-0
 .00008510,-0.00454248,0.00001526,-0.00019049,-0.06224148,0.00665396,0.
 06462881,-0.00021389,0.00057249,-0.00032234,-0.00008096,0.00009306,-0.
 00045923,0.00001646,-0.00025695,-0.00035003,0.00011353,-0.00000770,0.0
 0004246,-0.00056250,-0.00071873,0.00034721,0.00051347,0.00041146,-0.00
 039512,0.00247595,0.00453402,0.00413178,-0.00003716,0.00009274,0.00013
 640,-0.00055004,-0.00029196,-0.00036690,-0.12755620,-0.08295535,-0.093
 33101,0.00017454,-0.00017538,0.00123559,0.00002862,0.00004584,-0.00002
 023,-0.00005854,0.00002137,0.00003298,-0.00136413,-0.00107183,0.001079
 94,0.00005074,0.00019627,-0.00000303,-0.00004419,0.00020697,-0.0001792
 4,0.00008500,0.00004450,-0.00017394,-0.00002387,-0.00000469,-0.0000253
 9,0.00001837,-0.00002745,0.00006556,0.00001162,0.00002952,-0.00001816,
 0.00086625,-0.00028605,0.00027090,-0.00016846,0.00018960,-0.00013411,0
 .00008709,-0.00024958,0.00032506,0.00462567,0.00482886,0.00653442,-0.0
 1434202,-0.01857617,-0.01987014,0.13497536,0.00028428,-0.00022483,0.00
 003344,-0.00005843,0.00127773,-0.00096857,-0.00028395,0.00022381,0.000
 08852,-0.00008344,-0.00000375,0.00020697,-0.00036247,-0.00029710,-0.00
 019587,0.00009677,0.00022308,-0.00075517,0.00649301,0.00475863,0.00636
 804,0.00005458,-0.00007076,-0.00009197,-0.00031752,-0.00124728,-0.0001
 2410,-0.08314729,-0.13207827,-0.09655492,-0.00024853,0.00016544,0.0010
 2475,0.00000998,-0.00000561,-0.00000325,0.00004497,-0.00005572,0.00001
 568,-0.00090319,-0.00015288,0.00076901,0.00003900,-0.00004154,0.000181
 76,-0.00005104,-0.00013747,-0.00018608,0.00015902,-0.00006464,0.000008
 18,0.00001390,-0.00001045,0.00000896,-0.00001514,0.00002519,-0.0000447
 1,-0.00000175,0.00001857,0.00000121,-0.00004712,-0.00304634,0.00034727
 ,0.00003584,0.00020098,-0.00016055,0.00011036,-0.00010229,0.00006309,-
 0.01753738,-0.01585489,-0.01909954,0.00240256,0.00193950,0.00360208,0.
 09344421,0.14370199,-0.00001301,0.00053380,0.00001544,0.00046278,-0.00
 091326,0.00169399,-0.00050103,0.00023982,-0.00060455,0.00001233,0.0001
 9092,0.00021347,0.00044868,-0.00019898,-0.00143264,-0.00117197,-0.0002
 3368,0.00121484,-0.01688497,-0.01946475,-0.01788894,0.00011155,0.00014
 669,0.00007613,-0.00044161,-0.00018623,-0.00060362,-0.09215798,-0.0944
 5193,-0.15387456,0.00162712,0.00327220,-0.00575746,0.00003519,0.000013
 45,-0.00000954,0.00001069,-0.00012875,0.00011127,0.00067365,0.00054917
 ,0.00074387,-0.00046031,0.00006568,0.00072285,0.00022335,-0.00010158,-
 0.00004109,-0.00011178,-0.00001445,0.00016092,0.00000922,-0.00003608,-
 0.00000406,-0.00000139,-0.00003300,0.00005596,-0.00001256,0.00005937,-
 0.00002635,0.00032668,-0.00026089,0.00090282,0.00007346,0.00001091,-0.
 00002454,0.00019326,-0.00022173,0.00027826,0.00332699,0.00252771,0.002
 80862,0.00361532,0.00497531,0.00452760,0.10101416,0.10482227,0.1677418
 2,-0.00015165,-0.00008992,-0.00071192,0.00061308,0.00083112,0.00101222
 ,0.00000394,0.00002991,0.00009849,0.00002733,-0.00002112,-0.00006679,0
 .00005620,-0.00014111,0.00026318,0.00098723,0.00083878,-0.00147704,-0.
 00083421,0.00539601,-0.01394076,-0.00004057,-0.00001313,0.00002631,-0.
 00004516,0.00002355,0.00000320,-0.00112289,-0.00164025,-0.00136983,-0.
 04882322,-0.00626985,0.01851827,-0.00001278,0.00001273,0.00001816,-0.0
 0000231,-0.00002425,0.00004034,0.00007258,0.00011834,0.00005000,-0.000
 00865,0.00003578,0.00003981,-0.00005948,-0.00012554,-0.00006333,-0.000
 60607,-0.00032163,0.00020296,-0.00000738,0.00002022,0.00001146,0.00003
 282,0.00001668,-0.00000537,-0.00000271,-0.00001248,-0.00001280,0.00002
 043,0.00001579,0.00000030,-0.00000884,0.00000697,0.00000946,0.00000919
 ,-0.00000907,0.00001062,-0.00016032,-0.00023814,0.00011591,0.00018591,
 -0.00015010,-0.00034629,0.00057544,-0.00006263,-0.00081986,0.04889082,
 0.00023627,0.00010054,0.00011800,-0.00020218,0.00189539,-0.00017307,-0
 .00023455,-0.00013313,-0.00016051,0.00001060,0.00004924,-0.00002969,0.
 00009610,0.00000980,-0.00006720,0.00122010,0.00025351,-0.00029414,0.00
 117228,0.00450665,-0.02205035,0.00004915,0.00004643,-0.00003076,0.0000
 1152,0.00007904,-0.00000332,-0.00205823,-0.00286038,-0.00216031,-0.005
 34926,-0.07131311,0.08025532,0.00002455,-0.00000080,0.00001853,-0.0000
 1210,-0.00000107,0.00004928,0.00001774,0.00001185,0.00000080,0.0000468
 1,-0.00002363,0.00003667,-0.00006193,0.00003605,0.00005153,-0.00002850
 ,0.00022663,0.00027467,0.00000351,-0.00001974,0.00000451,-0.00001891,-
 0.00002319,0.00005456,0.00000497,0.00003461,0.00000955,0.00002769,0.00
 002390,0.00003188,-0.00000062,-0.00000930,-0.00001592,0.00001261,0.000
 01393,0.00003470,-0.00019705,0.00028927,-0.00012223,-0.00004605,-0.000
 08675,0.00009693,0.00002945,0.00056512,-0.00137027,0.00825177,0.075052
 32,0.00107651,-0.00033308,0.00033844,-0.00092121,0.00133937,0.00128413
 ,0.00004759,-0.00014610,-0.00001979,0.00002211,0.00000955,-0.00005875,
 -0.00001661,-0.00011562,0.00034434,0.00139628,0.00040169,0.00012971,0.
 00186992,0.00636959,-0.01978893,-0.00004007,-0.00004293,-0.00005765,-0
 .00003137,0.00008452,-0.00002479,-0.00286237,-0.00366881,-0.00177755,0
 .01674800,0.07692902,-0.29190304,0.00001442,0.00000423,0.00003259,-0.0
 0004609,-0.00005214,0.00003925,0.00012913,0.00017287,0.00017297,-0.000
 10570,-0.00008717,0.00007585,0.00013811,-0.00004894,0.00013827,-0.0006
 8208,-0.00000643,0.00074770,-0.00000150,-0.00000320,-0.00000400,-0.000
 00943,-0.00005502,0.00004616,0.00001756,-0.00000002,0.00003314,0.00006
 755,0.00004239,0.00005526,-0.00001059,0.00002085,-0.00001892,0.0000205
 4,-0.00002531,0.00005810,0.00004234,-0.00008131,0.00045935,-0.00000684
 ,0.00004278,0.00022144,0.00029558,0.00028370,-0.00130356,-0.01696678,-
 0.08318946,0.31801478,0.00093199,0.00338094,0.00070568,-0.00157233,0.0
 0046009,-0.00048217,-0.00010394,-0.00006665,0.00009218,-0.00006402,0.0
 0004389,-0.00006790,-0.00030154,0.00085415,0.00049807,-0.00031160,-0.0
 0297383,-0.00215908,-0.01484868,-0.00139166,0.00389671,0.00004427,0.00
 001113,-0.00002813,0.00004894,0.00003779,0.00000492,0.00073725,0.00040
 698,0.00101099,-0.30603424,-0.02390612,0.06770057,0.00003343,-0.000066
 17,0.00001068,0.00000274,0.00000932,0.00000052,-0.00005603,-0.00010907
 ,-0.00011541,-0.00038636,-0.00040164,-0.00013613,0.00015613,0.00010142
 ,0.00003132,0.00025281,0.00006849,-0.00010897,0.00003286,-0.00002963,0
 .00000939,-0.00000880,-0.00000392,-0.00000144,0.00001129,0.00000865,-0
 .00000048,-0.00002412,-0.00001328,0.00001131,0.00001759,-0.00002634,-0
 .00002245,0.00000083,0.00001125,-0.00000180,-0.00021138,-0.00003458,-0
 .00020984,0.00036218,-0.00003354,-0.00059694,0.00037914,0.00003906,0.0
 0011285,0.00017232,0.00031282,-0.00025831,0.33175407,0.00130390,-0.001
 54913,-0.00035418,-0.00083608,0.00113820,0.00001081,-0.00018287,-0.000
 39739,0.00024884,0.00002043,0.00023256,0.00007866,-0.00092860,0.001116
 15,0.00019198,-0.00106300,-0.00337275,-0.00243213,-0.02174591,-0.00219
 451,0.00614146,0.00009595,0.00002673,0.00003201,0.00011026,0.00018863,
 -0.00005159,0.00024627,0.00052956,0.00124911,-0.02001601,-0.04680961,0
 .00562173,0.00005697,-0.00003547,-0.00000464,0.00001580,-0.00000341,-0
 .00000236,-0.00000721,-0.00004819,-0.00007161,-0.00038224,-0.00054361,
 -0.00013210,-0.00026689,0.00013903,-0.00020755,0.00018454,-0.00019090,
 -0.00020584,0.00002468,-0.00005854,0.00000317,-0.00002035,-0.00001816,
 0.00000302,0.00001624,0.00004781,-0.00000801,0.00000550,-0.00000988,0.
 00003441,0.00001384,-0.00003816,-0.00004317,0.00000272,0.00003882,0.00
 007161,0.00022698,-0.00006681,-0.00006481,0.00023377,0.00023954,-0.000
 43260,0.00016583,-0.00016502,0.00015606,-0.00976753,-0.00156548,0.0021
 1579,0.02493739,0.04947426,0.00019140,-0.00073782,-0.00088401,0.000477
 42,0.00071266,0.00048663,-0.00016467,-0.00008252,0.00017068,0.00000054
 ,0.00003246,-0.00010323,-0.00081277,0.00046188,0.00098628,-0.00102061,
 -0.00330115,-0.00247771,-0.02010665,-0.00059238,0.00364178,0.00003578,
 -0.00000264,-0.00002619,0.00002969,0.00004683,0.00002902,-0.00091940,0
 .00015791,0.00130882,0.06989828,0.00696795,-0.06663314,-0.00000024,-0.
 00004154,0.00002841,-0.00000273,-0.00002088,0.00002028,0.00007031,0.00
 012848,-0.00002555,-0.00040204,-0.00046698,-0.00013906,0.00022663,-0.0
 0004527,-0.00000662,-0.00021045,-0.00012562,0.00039598,0.00000928,-0.0
 0000302,0.00002375,0.00001135,-0.00000512,-0.00000384,-0.00000183,0.00
 000774,-0.00000484,-0.00002587,-0.00000820,-0.00000456,0.00001494,-0.0
 0001911,0.00000287,-0.00000088,0.00001712,-0.00000330,0.00004388,0.000
 27302,0.00004609,0.00010447,-0.00041772,-0.00043396,0.00021079,0.00011
 307,0.00017504,0.02965894,0.00174677,-0.00645396,-0.07285444,-0.004048
 80,0.07011449,0.00069934,0.00184802,0.00073089,-0.00296436,-0.00325761
 ,-0.00218849,0.00054332,-0.00056389,0.00001798,0.00019004,0.00000012,0
 .00001575,0.00014648,-0.00001637,0.00004780,0.00049711,-0.00067413,-0.
 00002888,0.00514135,-0.01411229,0.00131792,-0.00008792,-0.00010271,-0.
 00005672,-0.00002409,-0.00002535,0.00000082,-0.00001690,0.00011003,0.0
 0041206,-0.10124825,0.10974904,-0.01146739,-0.00001098,0.00003899,-0.0
 0000791,-0.00001097,-0.00001456,0.00000863,0.00001944,0.00003870,0.000
 04250,0.00006024,0.00009186,0.00003246,-0.00019048,-0.00018339,-0.0003
 3746,0.00008044,0.00015195,0.00028535,0.00000958,-0.00001344,-0.000002
 39,-0.00000201,-0.00000252,0.00001710,0.00004932,-0.00003429,0.0000381
 6,0.00000952,0.00000239,-0.00001592,-0.00000405,-0.00000657,-0.0000150
 0,-0.00000061,-0.00000464,-0.00002668,0.00024211,-0.00002000,0.0001003
 5,0.00002140,0.00008297,-0.00005790,-0.00002694,-0.00011305,0.00017988
 ,0.00023785,-0.00330953,0.00010140,-0.01094081,0.02770697,-0.00431431,
 0.10756835,-0.00080985,0.00023178,0.00026014,-0.00238238,-0.00356896,-
 0.00292657,0.00137424,0.00022284,-0.00004220,0.00022662,0.00012136,0.0
 0001862,-0.00010924,0.00005769,-0.00008136,0.00127742,0.00070436,0.000
 56355,0.01045074,-0.01930057,0.00394649,-0.00024452,-0.00020660,-0.000
 14477,-0.00012221,-0.00028794,0.00006107,0.00025375,0.00013948,0.00116
 677,0.10730513,-0.25929324,0.02264159,-0.00010116,0.00006327,-0.000032
 52,-0.00000567,0.00000168,0.00000637,0.00003285,0.00005292,0.00004079,
 -0.00011117,0.00012565,-0.00002574,-0.00076981,0.00022659,-0.00024123,
 -0.00014264,-0.00017973,0.00011918,-0.00000686,0.00004917,-0.00000820,
 0.00001386,0.00003372,-0.00000100,0.00002434,-0.00011266,0.00005867,-0
 .00002853,0.00001906,-0.00005730,-0.00001266,0.00002740,0.00004583,-0.
 00002361,-0.00005978,-0.00013679,-0.00000310,0.00074322,-0.00046953,-0
 .00010029,0.00006938,0.00008271,-0.00027568,0.00041046,-0.00003504,0.0
 0328677,-0.00716919,0.00002793,-0.00165266,0.00390631,-0.00072771,-0.1
 1737339,0.28299644,-0.00006146,-0.00037487,0.00033109,-0.00199055,-0.0
 0320209,-0.00131961,0.00077888,-0.00028558,0.00020813,0.00012655,0.000
 02612,-0.00004703,0.00012062,0.00000333,-0.00015503,0.00068834,0.00005
 512,0.00057187,0.00932393,-0.01573653,0.00076263,-0.00016961,-0.000195
 09,-0.00016228,0.00000067,-0.00000441,0.00006102,0.00054475,-0.0004513
 9,0.00057382,-0.01243363,0.02489970,-0.05008877,-0.00002700,0.00001283
 ,0.00000675,-0.00002304,-0.00000365,0.00000956,-0.00001944,-0.00004097
 ,-0.00001835,0.00003060,0.00006765,-0.00000964,-0.00026161,0.00012173,
 0.00011080,-0.00011332,0.00023767,-0.00011553,-0.00000024,0.00000788,-
 0.00000505,-0.00001372,-0.00000928,0.00003274,0.00003448,-0.00006053,0
 .00008369,-0.00001791,-0.00000079,-0.00002563,0.00000624,0.00000008,0.
 00000118,-0.00001121,-0.00000030,-0.00004396,-0.00023341,-0.00010164,-
 0.00082256,-0.00003316,-0.00010145,-0.00007770,-0.00007484,0.00030284,
 0.00017008,-0.01429256,0.02690465,-0.00076072,0.00292502,-0.00793631,-
 0.00027345,0.01517714,-0.02412875,0.05100576,0.00028900,0.00044530,0.0
 0001746,0.00031892,-0.00036263,-0.00009986,-0.00054024,-0.00026505,0.0
 0074820,0.00152986,-0.00058098,-0.00135785,-0.02409263,-0.03503282,-0.
 01476556,-0.00718287,0.00190018,0.00344857,0.00030382,-0.00201358,-0.0
 0109271,0.00036233,0.00011074,-0.00015344,0.00020913,0.00011822,0.0000
 5682,-0.00005732,0.00006202,-0.00017908,-0.00059756,0.00015204,0.00024
 410,-0.00033910,0.00150069,-0.00007111,-0.00007668,0.00017583,-0.00000
 881,0.00142863,-0.00017621,0.00046487,-0.15193006,-0.17054541,-0.05964
 546,0.00020664,0.00011883,0.00018289,0.00020020,0.00036582,0.00003516,
 0.00010719,-0.00010844,0.00006929,-0.00002850,0.00000437,0.00000482,-0
 .00004881,0.00006024,-0.00002106,-0.00008284,-0.00002957,0.00006809,0.
 00008157,-0.00003649,-0.00006370,-0.00002999,0.00004054,0.00004673,0.0
 0000360,0.00004404,0.00000373,0.00001042,-0.00000195,0.00007848,0.0000
 3170,0.00000540,0.00011930,0.00000114,-0.00000904,-0.00002810,-0.00007
 399,-0.00015134,-0.00014683,0.00001247,0.00002970,0.00001950,0.1799839
 8,-0.00010426,-0.00016079,0.00002592,-0.00035297,0.00024100,0.00005612
 ,0.00025936,-0.00077162,0.00004155,0.00202968,0.00337335,0.00022039,0.
 00591761,0.00119840,0.00032974,-0.00033172,0.00072177,0.00102422,0.000
 31984,0.00029508,-0.00037919,0.00012883,0.00003535,-0.00000618,-0.0000
 5922,0.00007088,-0.00007489,-0.00000328,-0.00006923,-0.00009575,-0.000
 02788,-0.00003146,0.00006482,-0.00049289,-0.00072937,-0.00084984,-0.00
 008706,-0.00009349,0.00017680,0.00085296,-0.00003857,-0.00024140,-0.21
 274020,-0.34977277,-0.14591418,0.00015298,0.00028700,-0.00007146,0.000
 22763,0.00010046,0.00018716,-0.00000568,-0.00003485,0.00002247,0.00001
 025,-0.00000314,0.00001355,0.00002077,-0.00005416,-0.00000251,-0.00000
 046,0.00000369,0.00009337,0.00000302,-0.00004159,0.00003590,0.00003558
 ,-0.00006714,-0.00001136,-0.00000090,-0.00001305,0.00001213,0.00004237
 ,0.00003655,0.00003685,-0.00000868,0.00004831,0.00008728,0.00000232,0.
 00001149,0.00001126,0.00002574,-0.00001058,-0.00001941,0.00000669,-0.0
 0002412,-0.00000600,0.20417957,0.34549259,0.00009604,0.00014907,-0.000
 02063,0.00001456,-0.00011170,-0.00011650,-0.00021095,-0.00005094,0.000
 16432,0.00043334,-0.00019770,-0.00014277,0.01015908,0.01077174,0.00249
 525,0.00122411,-0.00018934,-0.00064939,0.00053876,0.00017816,0.0008561
 6,0.00012903,0.00001520,-0.00009019,0.00011285,-0.00003232,0.00014510,
 -0.00015380,0.00005819,0.00017486,0.00021664,0.00002835,-0.00008157,-0
 .00028156,-0.00002566,0.00032500,-0.00047230,-0.00009721,-0.00047872,0
 .00070949,0.00091481,0.00004905,-0.08471854,-0.15666710,-0.07062404,0.
 00005164,-0.00010841,-0.00012830,0.00010223,0.00009421,0.00036198,0.00
 006022,-0.00003079,0.00002131,-0.00004146,-0.00000170,-0.00003659,-0.0
 0002309,0.00003788,0.00002137,0.00001844,0.00008154,-0.00010801,-0.000
 00735,0.00001214,-0.00011677,0.00001494,-0.00002100,0.00002185,0.00001
 112,0.00002305,-0.00001328,-0.00002975,-0.00004197,0.00001204,0.000000
 90,-0.00005609,-0.00004204,-0.00000629,-0.00002111,-0.00001983,0.00003
 326,0.00003705,0.00004331,-0.00000713,0.00001901,-0.00000380,0.0720255
 7,0.14523265,0.06798085\\-0.00000246,-0.00000176,0.00000796,0.00001033
 ,0.00000371,0.00000791,0.00000966,-0.00002307,-0.00002099,-0.00002305,
 0.00000242,0.00000495,0.00004614,-0.00000875,0.00000108,-0.00000972,0.
 00000397,0.00000082,0.00001294,0.00001568,-0.00002031,0.00000473,-0.00
 001000,0.00000950,-0.00000675,0.00000708,0.00000041,-0.00000358,-0.000
 00702,0.00000079,0.00000379,0.00000383,0.00000899,-0.00001356,0.000004
 21,-0.00000153,0.00000210,0.00000282,-0.00000428,-0.00000309,0.0000100
 4,-0.00000591,-0.00004091,0.00001345,-0.00001539,-0.00000967,-0.000000
 07,-0.00000022,-0.00000067,-0.00000468,-0.00000525,-0.00000767,-0.0000
 0276,0.00000685,-0.00000077,-0.00000370,-0.00000068,-0.00000252,0.0000
 1013,-0.00000042,0.00000461,-0.00002338,0.00000168,-0.00000182,-0.0000
 0146,0.00000224,0.00000028,0.00000510,0.00000570,0.00000563,-0.0000064
 0,0.00000330,0.00000265,-0.00000089,0.00000006,0.00000669,0.00002032,0
 .00000044,0.00000332,0.00000170,-0.00000130,-0.00000345,-0.00000318,0.
 00000294,0.00000308,-0.00001011,-0.00000175,0.00001376,0.00000279,0.00
 001241\\\@
 The archive entry for this job was punched.


 KNOWLEDGE IS EXPERIMENT'S DAUGHTER.
 -- LEONARDO DA VINCI, IN "PENSIERI" CA. 1492
 Job cpu time:       0 days 22 hours 38 minutes 49.3 seconds.
 Elapsed time:       0 days  1 hours  7 minutes 56.9 seconds.
 File lengths (MBytes):  RWF=   1021 Int=      0 D2E=      0 Chk=     28 Scr=      1
 Normal termination of Gaussian 16 at Tue Jan  7 18:30:14 2025.
