 Entering Gaussian System, Link 0=g16
 Input=gjfs/data_set_12-catalyst-29.gjf
 Output=gjfs/data_set_12-catalyst-29.log
 Initial command:
 /usr/local/intel/g16/l1.exe "/scr/Gau-1100136.inp" -scrdir="/scr/"
 Entering Link 1 = /usr/local/intel/g16/l1.exe PID=   1100145.
  
 Copyright (c) 1988-2019, Gaussian, Inc.  All Rights Reserved.
  
 This is part of the Gaussian(R) 16 program.  It is based on
 the Gaussian(R) 09 system (copyright 2009, Gaussian, Inc.),
 the Gaussian(R) 03 system (copyright 2003, Gaussian, Inc.),
 the Gaussian(R) 98 system (copyright 1998, Gaussian, Inc.),
 the Gaussian(R) 94 system (copyright 1995, Gaussian, Inc.),
 the Gaussian 92(TM) system (copyright 1992, Gaussian, Inc.),
 the Gaussian 90(TM) system (copyright 1990, Gaussian, Inc.),
 the Gaussian 88(TM) system (copyright 1988, Gaussian, Inc.),
 the Gaussian 86(TM) system (copyright 1986, Carnegie Mellon
 University), and the Gaussian 82(TM) system (copyright 1983,
 Carnegie Mellon University). Gaussian is a federally registered
 trademark of Gaussian, Inc.
  
 This software contains proprietary and confidential information,
 including trade secrets, belonging to Gaussian, Inc.
  
 This software is provided under written license and may be
 used, copied, transmitted, or stored only in accord with that
 written license.
  
 The following legend is applicable only to US Government
 contracts under FAR:
  
                    RESTRICTED RIGHTS LEGEND
  
 Use, reproduction and disclosure by the US Government is
 subject to restrictions as set forth in subparagraphs (a)
 and (c) of the Commercial Computer Software - Restricted
 Rights clause in FAR 52.227-19.
  
 Gaussian, Inc.
 340 Quinnipiac St., Bldg. 40, Wallingford CT 06492
  
  
 ---------------------------------------------------------------
 Warning -- This program may not be used in any manner that
 competes with the business of Gaussian, Inc. or will provide
 assistance to any competitor of Gaussian, Inc.  The licensee
 of this program is prohibited from giving any competitor of
 Gaussian, Inc. access to this program.  By using this program,
 the user acknowledges that Gaussian, Inc. is engaged in the
 business of creating and licensing software in the field of
 computational chemistry and represents and warrants to the
 licensee that it is not a competitor of Gaussian, Inc. and that
 it will not use this program in any manner prohibited above.
 ---------------------------------------------------------------
  

 Cite this work as:
 Gaussian 16, Revision C.01,
 M. J. Frisch, G. W. Trucks, H. B. Schlegel, G. E. Scuseria, 
 M. A. Robb, J. R. Cheeseman, G. Scalmani, V. Barone, 
 G. A. Petersson, H. Nakatsuji, X. Li, M. Caricato, A. V. Marenich, 
 J. Bloino, B. G. Janesko, R. Gomperts, B. Mennucci, H. P. Hratchian, 
 J. V. Ortiz, A. F. Izmaylov, J. L. Sonnenberg, D. Williams-Young, 
 F. Ding, F. Lipparini, F. Egidi, J. Goings, B. Peng, A. Petrone, 
 T. Henderson, D. Ranasinghe, V. G. Zakrzewski, J. Gao, N. Rega, 
 G. Zheng, W. Liang, M. Hada, M. Ehara, K. Toyota, R. Fukuda, 
 J. Hasegawa, M. Ishida, T. Nakajima, Y. Honda, O. Kitao, H. Nakai, 
 T. Vreven, K. Throssell, J. A. Montgomery, Jr., J. E. Peralta, 
 F. Ogliaro, M. J. Bearpark, J. J. Heyd, E. N. Brothers, K. N. Kudin, 
 V. N. Staroverov, T. A. Keith, R. Kobayashi, J. Normand, 
 K. Raghavachari, A. P. Rendell, J. C. Burant, S. S. Iyengar, 
 J. Tomasi, M. Cossi, J. M. Millam, M. Klene, C. Adamo, R. Cammi, 
 J. W. Ochterski, R. L. Martin, K. Morokuma, O. Farkas, 
 J. B. Foresman, and D. J. Fox, Gaussian, Inc., Wallingford CT, 2019.
 
 ******************************************
 Gaussian 16:  ES64L-G16RevC.01  3-Jul-2019
                 7-Jan-2025 
 ******************************************
 %nprocshared=20
 Will use up to   20 processors via shared memory.
 %mem=30GB
 %chk=outputs/data_set_12-catalyst-29.chk
 ----------------------------------
 #p M062X/DEF2TZVP opt freq pop=NBO
 ----------------------------------
 1/18=20,19=15,26=3,38=1/1,3;
 2/9=110,12=2,17=6,18=5,40=1/2;
 3/5=44,7=101,11=2,25=1,30=1,71=1,74=-55/1,2,3;
 4//1;
 5/5=2,38=5/2;
 6/7=2,8=2,9=2,10=2,28=1,40=1/1,7;
 7//1,2,3,16;
 1/18=20,19=15,26=3/3(2);
 2/9=110/2;
 99//99;
 2/9=110/2;
 3/5=44,7=101,11=2,25=1,30=1,71=1,74=-55/1,2,3;
 4/5=5,16=3,69=1/1;
 5/5=2,38=5/2;
 7//1,2,3,16;
 1/18=20,19=15,26=3/3(-5);
 2/9=110/2;
 6/7=2,8=2,9=2,10=2,19=2,28=1,40=1/1,7;
 99/9=1/99;
 Leave Link    1 at Tue Jan  7 16:43:06 2025, MaxMem=  4026531840 cpu:               1.9 elap:               0.4
 (Enter /usr/local/intel/g16/l101.exe)
 -----------------------
 data_set_12-catalyst-29
 -----------------------
 Symbolic Z-matrix:
 Charge =  0 Multiplicity = 2
 O                    -1.46833   0.15046  -1.66532 
 N                    -1.30195  -0.00997  -0.36429 
 C                    -1.90474  -1.24691   0.23874 
 C                    -1.16542  -2.48279  -0.32362 
 C                    -0.22183   0.77735   0.2847 
 C                    -1.79567  -1.21328   1.77355 
 C                    -3.38865  -1.27589  -0.1776 
 C                    -0.22702   2.23358  -0.2479 
 H                    -0.11562  -2.48877  -0.01327 
 H                    -1.20622  -2.47379  -1.41661 
 H                    -2.26702  -0.31591   2.18981 
 H                    -0.75621  -1.26777   2.11323 
 H                    -2.32027  -2.08556   2.1758 
 H                    -3.47698  -1.26422  -1.26599 
 H                    -3.91738  -0.40366   0.22219 
 H                    -3.86352  -2.18347   0.21012 
 C                     0.89265   3.04726   0.42754 
 C                    -1.59842   2.89148  -0.00882 
 H                    -1.64344  -3.39891   0.0406 
 H                    -0.45603   0.82672   1.35266 
 H                     0.75978   3.0667    1.51782 
 H                     0.8706    4.08218   0.06962 
 H                     1.88282   2.63369   0.21316 
 H                    -1.83487   2.91729   1.06384 
 H                    -2.39283   2.3499   -0.52903 
 H                    -1.59254   3.92404  -0.37501 
 C                     1.12578   0.08299   0.11202 
 C                     1.91451  -0.22431   1.23163 
 C                     3.16072  -0.85141   1.07896 
 C                     3.62676  -1.17896  -0.20232 
 C                     2.84063  -0.87457  -1.32645 
 C                     1.59829  -0.24731  -1.17146 
 H                    -0.04166   2.19569  -1.32681 
 H                     1.5583    0.03239   2.22645 
 H                     3.76175  -1.08276   1.95237 
 H                     4.58879  -1.66561  -0.32504 
 H                     3.19583  -1.12891  -2.31984 
 H                     0.98153  -0.02666  -2.03733 
 
 ITRead=  0  0  0  0  0  0  0  0  0  0  0  0  0  0  0  0  0  0  0  0
 ITRead=  0  0  0  0  0  0  0  0  0  0  0  0  0  0  0  0  0  0
 MicOpt= -1 -1 -1 -1 -1 -1 -1 -1 -1 -1 -1 -1 -1 -1 -1 -1 -1 -1 -1 -1
 MicOpt= -1 -1 -1 -1 -1 -1 -1 -1 -1 -1 -1 -1 -1 -1 -1 -1 -1 -1
 NAtoms=     38 NQM=       38 NQMF=       0 NMMI=      0 NMMIF=      0
                NMic=       0 NMicF=      0.
                    Isotopes and Nuclear Properties:
 (Nuclear quadrupole moments (NQMom) in fm**2, nuclear magnetic moments (NMagM)
  in nuclear magnetons)

  Atom         1           2           3           4           5           6           7           8           9          10
 IAtWgt=          16          14          12          12          12          12          12          12           1           1
 AtmWgt=  15.9949146  14.0030740  12.0000000  12.0000000  12.0000000  12.0000000  12.0000000  12.0000000   1.0078250   1.0078250
 NucSpn=           0           2           0           0           0           0           0           0           1           1
 AtZEff=  -0.0000000  -0.0000000  -0.0000000  -0.0000000  -0.0000000  -0.0000000  -0.0000000  -0.0000000  -0.0000000  -0.0000000
 NQMom=    0.0000000   2.0440000   0.0000000   0.0000000   0.0000000   0.0000000   0.0000000   0.0000000   0.0000000   0.0000000
 NMagM=    0.0000000   0.4037610   0.0000000   0.0000000   0.0000000   0.0000000   0.0000000   0.0000000   2.7928460   2.7928460
 AtZNuc=   8.0000000   7.0000000   6.0000000   6.0000000   6.0000000   6.0000000   6.0000000   6.0000000   1.0000000   1.0000000

  Atom        11          12          13          14          15          16          17          18          19          20
 IAtWgt=           1           1           1           1           1           1          12          12           1           1
 AtmWgt=   1.0078250   1.0078250   1.0078250   1.0078250   1.0078250   1.0078250  12.0000000  12.0000000   1.0078250   1.0078250
 NucSpn=           1           1           1           1           1           1           0           0           1           1
 AtZEff=  -0.0000000  -0.0000000  -0.0000000  -0.0000000  -0.0000000  -0.0000000  -0.0000000  -0.0000000  -0.0000000  -0.0000000
 NQMom=    0.0000000   0.0000000   0.0000000   0.0000000   0.0000000   0.0000000   0.0000000   0.0000000   0.0000000   0.0000000
 NMagM=    2.7928460   2.7928460   2.7928460   2.7928460   2.7928460   2.7928460   0.0000000   0.0000000   2.7928460   2.7928460
 AtZNuc=   1.0000000   1.0000000   1.0000000   1.0000000   1.0000000   1.0000000   6.0000000   6.0000000   1.0000000   1.0000000

  Atom        21          22          23          24          25          26          27          28          29          30
 IAtWgt=           1           1           1           1           1           1          12          12          12          12
 AtmWgt=   1.0078250   1.0078250   1.0078250   1.0078250   1.0078250   1.0078250  12.0000000  12.0000000  12.0000000  12.0000000
 NucSpn=           1           1           1           1           1           1           0           0           0           0
 AtZEff=  -0.0000000  -0.0000000  -0.0000000  -0.0000000  -0.0000000  -0.0000000  -0.0000000  -0.0000000  -0.0000000  -0.0000000
 NQMom=    0.0000000   0.0000000   0.0000000   0.0000000   0.0000000   0.0000000   0.0000000   0.0000000   0.0000000   0.0000000
 NMagM=    2.7928460   2.7928460   2.7928460   2.7928460   2.7928460   2.7928460   0.0000000   0.0000000   0.0000000   0.0000000
 AtZNuc=   1.0000000   1.0000000   1.0000000   1.0000000   1.0000000   1.0000000   6.0000000   6.0000000   6.0000000   6.0000000

  Atom        31          32          33          34          35          36          37          38
 IAtWgt=          12          12           1           1           1           1           1           1
 AtmWgt=  12.0000000  12.0000000   1.0078250   1.0078250   1.0078250   1.0078250   1.0078250   1.0078250
 NucSpn=           0           0           1           1           1           1           1           1
 AtZEff=  -0.0000000  -0.0000000  -0.0000000  -0.0000000  -0.0000000  -0.0000000  -0.0000000  -0.0000000
 NQMom=    0.0000000   0.0000000   0.0000000   0.0000000   0.0000000   0.0000000   0.0000000   0.0000000
 NMagM=    0.0000000   0.0000000   2.7928460   2.7928460   2.7928460   2.7928460   2.7928460   2.7928460
 AtZNuc=   6.0000000   6.0000000   1.0000000   1.0000000   1.0000000   1.0000000   1.0000000   1.0000000
 Leave Link  101 at Tue Jan  7 16:43:08 2025, MaxMem=  4026531840 cpu:              16.2 elap:               0.9
 (Enter /usr/local/intel/g16/l103.exe)

 GradGradGradGradGradGradGradGradGradGradGradGradGradGradGradGradGradGrad
 Berny optimization.
 Initialization pass.
                           ----------------------------
                           !    Initial Parameters    !
                           ! (Angstroms and Degrees)  !
 --------------------------                            --------------------------
 ! Name  Definition              Value          Derivative Info.                !
 --------------------------------------------------------------------------------
 ! R1    R(1,2)                  1.3214         estimate D2E/DX2                !
 ! R2    R(2,3)                  1.5023         estimate D2E/DX2                !
 ! R3    R(2,5)                  1.4858         estimate D2E/DX2                !
 ! R4    R(3,4)                  1.546          estimate D2E/DX2                !
 ! R5    R(3,6)                  1.5391         estimate D2E/DX2                !
 ! R6    R(3,7)                  1.5415         estimate D2E/DX2                !
 ! R7    R(4,9)                  1.0947         estimate D2E/DX2                !
 ! R8    R(4,10)                 1.0938         estimate D2E/DX2                !
 ! R9    R(4,19)                 1.0956         estimate D2E/DX2                !
 ! R10   R(5,8)                  1.5506         estimate D2E/DX2                !
 ! R11   R(5,20)                 1.0944         estimate D2E/DX2                !
 ! R12   R(5,27)                 1.5258         estimate D2E/DX2                !
 ! R13   R(6,11)                 1.0958         estimate D2E/DX2                !
 ! R14   R(6,12)                 1.0949         estimate D2E/DX2                !
 ! R15   R(6,13)                 1.0945         estimate D2E/DX2                !
 ! R16   R(7,14)                 1.092          estimate D2E/DX2                !
 ! R17   R(7,15)                 1.0955         estimate D2E/DX2                !
 ! R18   R(7,16)                 1.0952         estimate D2E/DX2                !
 ! R19   R(8,17)                 1.5401         estimate D2E/DX2                !
 ! R20   R(8,18)                 1.5397         estimate D2E/DX2                !
 ! R21   R(8,33)                 1.0954         estimate D2E/DX2                !
 ! R22   R(17,21)                1.0985         estimate D2E/DX2                !
 ! R23   R(17,22)                1.0953         estimate D2E/DX2                !
 ! R24   R(17,23)                1.0943         estimate D2E/DX2                !
 ! R25   R(18,24)                1.0987         estimate D2E/DX2                !
 ! R26   R(18,25)                1.0932         estimate D2E/DX2                !
 ! R27   R(18,26)                1.0956         estimate D2E/DX2                !
 ! R28   R(27,28)                1.4036         estimate D2E/DX2                !
 ! R29   R(27,32)                1.407          estimate D2E/DX2                !
 ! R30   R(28,29)                1.4034         estimate D2E/DX2                !
 ! R31   R(28,34)                1.0874         estimate D2E/DX2                !
 ! R32   R(29,30)                1.4022         estimate D2E/DX2                !
 ! R33   R(29,35)                1.0852         estimate D2E/DX2                !
 ! R34   R(30,31)                1.4051         estimate D2E/DX2                !
 ! R35   R(30,36)                1.0851         estimate D2E/DX2                !
 ! R36   R(31,32)                1.4003         estimate D2E/DX2                !
 ! R37   R(31,37)                1.0852         estimate D2E/DX2                !
 ! R38   R(32,38)                1.0857         estimate D2E/DX2                !
 ! A1    A(1,2,3)              116.4005         estimate D2E/DX2                !
 ! A2    A(1,2,5)              117.2101         estimate D2E/DX2                !
 ! A3    A(3,2,5)              123.5474         estimate D2E/DX2                !
 ! A4    A(2,3,4)              108.6807         estimate D2E/DX2                !
 ! A5    A(2,3,6)              110.7233         estimate D2E/DX2                !
 ! A6    A(2,3,7)              107.0566         estimate D2E/DX2                !
 ! A7    A(4,3,6)              110.2623         estimate D2E/DX2                !
 ! A8    A(4,3,7)              110.3086         estimate D2E/DX2                !
 ! A9    A(6,3,7)              109.7539         estimate D2E/DX2                !
 ! A10   A(3,4,9)              111.0894         estimate D2E/DX2                !
 ! A11   A(3,4,10)             109.8194         estimate D2E/DX2                !
 ! A12   A(3,4,19)             109.8071         estimate D2E/DX2                !
 ! A13   A(9,4,10)             108.6085         estimate D2E/DX2                !
 ! A14   A(9,4,19)             108.6374         estimate D2E/DX2                !
 ! A15   A(10,4,19)            108.8318         estimate D2E/DX2                !
 ! A16   A(2,5,8)              110.1927         estimate D2E/DX2                !
 ! A17   A(2,5,20)             107.1314         estimate D2E/DX2                !
 ! A18   A(2,5,27)             110.578          estimate D2E/DX2                !
 ! A19   A(8,5,20)             106.9825         estimate D2E/DX2                !
 ! A20   A(8,5,27)             113.0463         estimate D2E/DX2                !
 ! A21   A(20,5,27)            108.6609         estimate D2E/DX2                !
 ! A22   A(3,6,11)             111.4842         estimate D2E/DX2                !
 ! A23   A(3,6,12)             112.0599         estimate D2E/DX2                !
 ! A24   A(3,6,13)             108.3683         estimate D2E/DX2                !
 ! A25   A(11,6,12)            109.3465         estimate D2E/DX2                !
 ! A26   A(11,6,13)            107.8715         estimate D2E/DX2                !
 ! A27   A(12,6,13)            107.5391         estimate D2E/DX2                !
 ! A28   A(3,7,14)             110.2946         estimate D2E/DX2                !
 ! A29   A(3,7,15)             110.5529         estimate D2E/DX2                !
 ! A30   A(3,7,16)             109.7154         estimate D2E/DX2                !
 ! A31   A(14,7,15)            108.4314         estimate D2E/DX2                !
 ! A32   A(14,7,16)            109.0636         estimate D2E/DX2                !
 ! A33   A(15,7,16)            108.7426         estimate D2E/DX2                !
 ! A34   A(5,8,17)             110.066          estimate D2E/DX2                !
 ! A35   A(5,8,18)             110.5446         estimate D2E/DX2                !
 ! A36   A(5,8,33)             107.7741         estimate D2E/DX2                !
 ! A37   A(17,8,18)            110.7131         estimate D2E/DX2                !
 ! A38   A(17,8,33)            109.1001         estimate D2E/DX2                !
 ! A39   A(18,8,33)            108.5692         estimate D2E/DX2                !
 ! A40   A(8,17,21)            110.8968         estimate D2E/DX2                !
 ! A41   A(8,17,22)            109.953          estimate D2E/DX2                !
 ! A42   A(8,17,23)            111.8544         estimate D2E/DX2                !
 ! A43   A(21,17,22)           107.7687         estimate D2E/DX2                !
 ! A44   A(21,17,23)           108.0947         estimate D2E/DX2                !
 ! A45   A(22,17,23)           108.1378         estimate D2E/DX2                !
 ! A46   A(8,18,24)            110.6896         estimate D2E/DX2                !
 ! A47   A(8,18,25)            111.2036         estimate D2E/DX2                !
 ! A48   A(8,18,26)            110.2446         estimate D2E/DX2                !
 ! A49   A(24,18,25)           108.6531         estimate D2E/DX2                !
 ! A50   A(24,18,26)           107.7783         estimate D2E/DX2                !
 ! A51   A(25,18,26)           108.1656         estimate D2E/DX2                !
 ! A52   A(5,27,28)            120.3766         estimate D2E/DX2                !
 ! A53   A(5,27,32)            120.4428         estimate D2E/DX2                !
 ! A54   A(28,27,32)           119.1786         estimate D2E/DX2                !
 ! A55   A(27,28,29)           120.6666         estimate D2E/DX2                !
 ! A56   A(27,28,34)           119.6039         estimate D2E/DX2                !
 ! A57   A(29,28,34)           119.7283         estimate D2E/DX2                !
 ! A58   A(28,29,30)           119.9286         estimate D2E/DX2                !
 ! A59   A(28,29,35)           119.9679         estimate D2E/DX2                !
 ! A60   A(30,29,35)           120.1035         estimate D2E/DX2                !
 ! A61   A(29,30,31)           119.6361         estimate D2E/DX2                !
 ! A62   A(29,30,36)           120.1845         estimate D2E/DX2                !
 ! A63   A(31,30,36)           120.1793         estimate D2E/DX2                !
 ! A64   A(30,31,32)           120.3212         estimate D2E/DX2                !
 ! A65   A(30,31,37)           119.8979         estimate D2E/DX2                !
 ! A66   A(32,31,37)           119.7807         estimate D2E/DX2                !
 ! A67   A(27,32,31)           120.2688         estimate D2E/DX2                !
 ! A68   A(27,32,38)           119.2754         estimate D2E/DX2                !
 ! A69   A(31,32,38)           120.4467         estimate D2E/DX2                !
 ! D1    D(1,2,3,4)             66.1359         estimate D2E/DX2                !
 ! D2    D(1,2,3,6)           -172.6135         estimate D2E/DX2                !
 ! D3    D(1,2,3,7)            -53.0056         estimate D2E/DX2                !
 ! D4    D(5,2,3,4)            -94.2004         estimate D2E/DX2                !
 ! D5    D(5,2,3,6)             27.0502         estimate D2E/DX2                !
 ! D6    D(5,2,3,7)            146.6582         estimate D2E/DX2                !
 ! D7    D(1,2,5,8)             42.998          estimate D2E/DX2                !
 ! D8    D(1,2,5,20)           159.0395         estimate D2E/DX2                !
 ! D9    D(1,2,5,27)           -82.7075         estimate D2E/DX2                !
 ! D10   D(3,2,5,8)           -156.8125         estimate D2E/DX2                !
 ! D11   D(3,2,5,20)           -40.7711         estimate D2E/DX2                !
 ! D12   D(3,2,5,27)            77.482          estimate D2E/DX2                !
 ! D13   D(2,3,4,9)             64.4126         estimate D2E/DX2                !
 ! D14   D(2,3,4,10)           -55.7552         estimate D2E/DX2                !
 ! D15   D(2,3,4,19)          -175.3916         estimate D2E/DX2                !
 ! D16   D(6,3,4,9)            -57.1204         estimate D2E/DX2                !
 ! D17   D(6,3,4,10)          -177.2881         estimate D2E/DX2                !
 ! D18   D(6,3,4,19)            63.0754         estimate D2E/DX2                !
 ! D19   D(7,3,4,9)           -178.5047         estimate D2E/DX2                !
 ! D20   D(7,3,4,10)            61.3276         estimate D2E/DX2                !
 ! D21   D(7,3,4,19)           -58.3088         estimate D2E/DX2                !
 ! D22   D(2,3,6,11)            56.6239         estimate D2E/DX2                !
 ! D23   D(2,3,6,12)           -66.3078         estimate D2E/DX2                !
 ! D24   D(2,3,6,13)           175.1912         estimate D2E/DX2                !
 ! D25   D(4,3,6,11)           176.9358         estimate D2E/DX2                !
 ! D26   D(4,3,6,12)            54.004          estimate D2E/DX2                !
 ! D27   D(4,3,6,13)           -64.497          estimate D2E/DX2                !
 ! D28   D(7,3,6,11)           -61.3506         estimate D2E/DX2                !
 ! D29   D(7,3,6,12)           175.7177         estimate D2E/DX2                !
 ! D30   D(7,3,6,13)            57.2167         estimate D2E/DX2                !
 ! D31   D(2,3,7,14)            57.7755         estimate D2E/DX2                !
 ! D32   D(2,3,7,15)           -62.1362         estimate D2E/DX2                !
 ! D33   D(2,3,7,16)           177.9372         estimate D2E/DX2                !
 ! D34   D(4,3,7,14)           -60.3095         estimate D2E/DX2                !
 ! D35   D(4,3,7,15)           179.7788         estimate D2E/DX2                !
 ! D36   D(4,3,7,16)            59.8522         estimate D2E/DX2                !
 ! D37   D(6,3,7,14)           178.0045         estimate D2E/DX2                !
 ! D38   D(6,3,7,15)            58.0928         estimate D2E/DX2                !
 ! D39   D(6,3,7,16)           -61.8338         estimate D2E/DX2                !
 ! D40   D(2,5,8,17)           179.9487         estimate D2E/DX2                !
 ! D41   D(2,5,8,18)            57.332          estimate D2E/DX2                !
 ! D42   D(2,5,8,33)           -61.1748         estimate D2E/DX2                !
 ! D43   D(20,5,8,17)           63.814          estimate D2E/DX2                !
 ! D44   D(20,5,8,18)          -58.8027         estimate D2E/DX2                !
 ! D45   D(20,5,8,33)         -177.3096         estimate D2E/DX2                !
 ! D46   D(27,5,8,17)          -55.7567         estimate D2E/DX2                !
 ! D47   D(27,5,8,18)         -178.3734         estimate D2E/DX2                !
 ! D48   D(27,5,8,33)           63.1197         estimate D2E/DX2                !
 ! D49   D(2,5,27,28)         -124.9914         estimate D2E/DX2                !
 ! D50   D(2,5,27,32)           55.5317         estimate D2E/DX2                !
 ! D51   D(8,5,27,28)          110.9249         estimate D2E/DX2                !
 ! D52   D(8,5,27,32)          -68.552          estimate D2E/DX2                !
 ! D53   D(20,5,27,28)          -7.6758         estimate D2E/DX2                !
 ! D54   D(20,5,27,32)         172.8474         estimate D2E/DX2                !
 ! D55   D(5,8,17,21)          -59.433          estimate D2E/DX2                !
 ! D56   D(5,8,17,22)         -178.5195         estimate D2E/DX2                !
 ! D57   D(5,8,17,23)           61.3194         estimate D2E/DX2                !
 ! D58   D(18,8,17,21)          63.0844         estimate D2E/DX2                !
 ! D59   D(18,8,17,22)         -56.0021         estimate D2E/DX2                !
 ! D60   D(18,8,17,23)        -176.1632         estimate D2E/DX2                !
 ! D61   D(33,8,17,21)        -177.4941         estimate D2E/DX2                !
 ! D62   D(33,8,17,22)          63.4193         estimate D2E/DX2                !
 ! D63   D(33,8,17,23)         -56.7418         estimate D2E/DX2                !
 ! D64   D(5,8,18,24)           60.1101         estimate D2E/DX2                !
 ! D65   D(5,8,18,25)          -60.7688         estimate D2E/DX2                !
 ! D66   D(5,8,18,26)          179.2642         estimate D2E/DX2                !
 ! D67   D(17,8,18,24)         -62.128          estimate D2E/DX2                !
 ! D68   D(17,8,18,25)         176.9931         estimate D2E/DX2                !
 ! D69   D(17,8,18,26)          57.0261         estimate D2E/DX2                !
 ! D70   D(33,8,18,24)         178.1316         estimate D2E/DX2                !
 ! D71   D(33,8,18,25)          57.2526         estimate D2E/DX2                !
 ! D72   D(33,8,18,26)         -62.7143         estimate D2E/DX2                !
 ! D73   D(5,27,28,29)        -179.39           estimate D2E/DX2                !
 ! D74   D(5,27,28,34)           0.2102         estimate D2E/DX2                !
 ! D75   D(32,27,28,29)          0.0934         estimate D2E/DX2                !
 ! D76   D(32,27,28,34)        179.6936         estimate D2E/DX2                !
 ! D77   D(5,27,32,31)         179.4705         estimate D2E/DX2                !
 ! D78   D(5,27,32,38)          -1.6184         estimate D2E/DX2                !
 ! D79   D(28,27,32,31)         -0.0126         estimate D2E/DX2                !
 ! D80   D(28,27,32,38)        178.8985         estimate D2E/DX2                !
 ! D81   D(27,28,29,30)         -0.1202         estimate D2E/DX2                !
 ! D82   D(27,28,29,35)        179.9281         estimate D2E/DX2                !
 ! D83   D(34,28,29,30)       -179.7199         estimate D2E/DX2                !
 ! D84   D(34,28,29,35)          0.3284         estimate D2E/DX2                !
 ! D85   D(28,29,30,31)          0.0652         estimate D2E/DX2                !
 ! D86   D(28,29,30,36)       -179.8812         estimate D2E/DX2                !
 ! D87   D(35,29,30,31)       -179.9831         estimate D2E/DX2                !
 ! D88   D(35,29,30,36)          0.0705         estimate D2E/DX2                !
 ! D89   D(29,30,31,32)          0.0149         estimate D2E/DX2                !
 ! D90   D(29,30,31,37)       -179.8137         estimate D2E/DX2                !
 ! D91   D(36,30,31,32)        179.9612         estimate D2E/DX2                !
 ! D92   D(36,30,31,37)          0.1327         estimate D2E/DX2                !
 ! D93   D(30,31,32,27)         -0.0412         estimate D2E/DX2                !
 ! D94   D(30,31,32,38)       -178.9395         estimate D2E/DX2                !
 ! D95   D(37,31,32,27)        179.7875         estimate D2E/DX2                !
 ! D96   D(37,31,32,38)          0.8892         estimate D2E/DX2                !
 --------------------------------------------------------------------------------
 Trust Radius=3.00D-01 FncErr=1.00D-07 GrdErr=1.00D-06 EigMax=2.50D+02 EigMin=1.00D-04
 Number of steps in this run=    213 maximum allowed number of steps=    228.
 GradGradGradGradGradGradGradGradGradGradGradGradGradGradGradGradGradGrad

 Leave Link  103 at Tue Jan  7 16:43:08 2025, MaxMem=  4026531840 cpu:               0.3 elap:               0.2
 (Enter /usr/local/intel/g16/l202.exe)
                          Input orientation:                          
 ---------------------------------------------------------------------
 Center     Atomic      Atomic             Coordinates (Angstroms)
 Number     Number       Type             X           Y           Z
 ---------------------------------------------------------------------
      1          8           0       -1.468327    0.150458   -1.665315
      2          7           0       -1.301946   -0.009969   -0.364293
      3          6           0       -1.904741   -1.246914    0.238735
      4          6           0       -1.165422   -2.482791   -0.323620
      5          6           0       -0.221834    0.777346    0.284700
      6          6           0       -1.795665   -1.213277    1.773551
      7          6           0       -3.388652   -1.275888   -0.177601
      8          6           0       -0.227024    2.233582   -0.247898
      9          1           0       -0.115617   -2.488768   -0.013271
     10          1           0       -1.206220   -2.473787   -1.416607
     11          1           0       -2.267022   -0.315907    2.189812
     12          1           0       -0.756206   -1.267771    2.113230
     13          1           0       -2.320269   -2.085564    2.175801
     14          1           0       -3.476977   -1.264215   -1.265994
     15          1           0       -3.917382   -0.403656    0.222192
     16          1           0       -3.863524   -2.183472    0.210122
     17          6           0        0.892654    3.047259    0.427542
     18          6           0       -1.598419    2.891484   -0.008820
     19          1           0       -1.643440   -3.398914    0.040598
     20          1           0       -0.456034    0.826724    1.352657
     21          1           0        0.759775    3.066703    1.517824
     22          1           0        0.870603    4.082182    0.069617
     23          1           0        1.882818    2.633694    0.213159
     24          1           0       -1.834866    2.917291    1.063845
     25          1           0       -2.392833    2.349901   -0.529033
     26          1           0       -1.592539    3.924044   -0.375012
     27          6           0        1.125776    0.082993    0.112022
     28          6           0        1.914510   -0.224306    1.231631
     29          6           0        3.160715   -0.851408    1.078955
     30          6           0        3.626755   -1.178958   -0.202316
     31          6           0        2.840634   -0.874571   -1.326450
     32          6           0        1.598286   -0.247305   -1.171460
     33          1           0       -0.041657    2.195689   -1.326811
     34          1           0        1.558303    0.032388    2.226451
     35          1           0        3.761746   -1.082765    1.952369
     36          1           0        4.588794   -1.665609   -0.325035
     37          1           0        3.195829   -1.128910   -2.319840
     38          1           0        0.981528   -0.026656   -2.037334
 ---------------------------------------------------------------------
                    Distance matrix (angstroms):
                    1          2          3          4          5
     1  O    0.000000
     2  N    1.321392   0.000000
     3  C    2.401773   1.502344   0.000000
     4  C    2.970841   2.476922   1.546036   0.000000
     5  C    2.397768   1.485833   2.632853   3.448029   0.000000
     6  C    3.713856   2.502416   1.539055   2.531205   2.942142
     7  C    2.816985   2.447804   1.541482   2.533908   3.802398
     8  C    2.808791   2.490487   3.894278   4.809418   1.550584
     9  H    3.394788   2.770386   2.192413   1.094734   3.281397
    10  H    2.649003   2.680845   2.175616   1.093785   3.799122
    11  H    3.964519   2.747439   2.191968   3.496605   3.001241
    12  H    4.098279   2.831611   2.198477   2.753538   2.794920
    13  H    4.525458   3.434699   2.151330   2.781828   4.021933
    14  H    2.489062   2.667763   2.176335   2.777820   4.143498
    15  H    3.141273   2.709144   2.182219   3.491990   3.880174
    16  H    3.834249   3.408189   2.171357   2.766627   4.694029
    17  C    4.283192   3.845766   5.128449   5.948224   2.532784
    18  C    3.205327   2.938143   4.157097   5.400872   2.539827
    19  H    3.941934   3.430088   2.176842   1.095645   4.418336
    20  H    3.254263   2.088909   2.763973   3.777039   1.094450
    21  H    4.858117   4.154391   5.229054   6.155825   2.779444
    22  H    4.892753   4.653380   6.010857   6.884686   3.487351
    23  H    4.574418   4.179130   5.422672   5.979826   2.807260
    24  H    3.903592   3.300369   4.245738   5.615523   2.790753
    25  H    2.642612   2.605026   3.710092   4.990355   2.801487
    26  H    3.990020   3.944746   5.216604   6.421262   3.495105
    27  C    3.145290   2.475753   3.311909   3.467365   1.525777
    28  C    4.469489   3.597013   4.076549   4.123778   2.542430
    29  C    5.473827   4.765116   5.149878   4.831572   3.837358
    30  C    5.465123   5.068024   5.549468   4.967862   4.344646
    31  C    4.442146   4.339845   5.010691   4.431763   3.834494
    32  C    3.131489   3.019800   3.906285   3.654355   2.546203
    33  H    2.516534   2.716560   4.215867   4.915019   2.154328
    34  H    4.931559   3.859375   4.192887   4.499741   2.737562
    35  H    6.477819   5.670872   5.922209   5.605103   4.702132
    36  H    6.463990   6.119110   6.531396   5.811952   5.429728
    37  H    4.880526   5.030524   5.707543   4.983814   4.700836
    38  H    2.484262   2.830830   3.872992   3.684944   2.736118
                    6          7          8          9         10
     6  C    0.000000
     7  C    2.519627   0.000000
     8  C    4.292753   4.724110   0.000000
     9  H    2.764448   3.494401   4.729487   0.000000
    10  H    3.480437   2.780847   4.948134   1.777355   0.000000
    11  H    1.095775   2.790029   4.074790   3.768746   4.334513
    12  H    1.094909   3.489663   4.256105   2.534402   3.757225
    13  H    1.094486   2.708416   5.376896   3.132906   3.781166
    14  H    3.473937   1.092033   4.881936   3.790460   2.577224
    15  H    2.750252   1.095527   4.560126   4.342413   3.784376
    16  H    2.767965   1.095236   5.739711   3.766951   3.129184
    17  C    5.214496   6.114358   1.540120   5.644335   6.187738
    18  C    4.479377   4.538768   1.539713   5.580845   5.560739
    19  H    2.793440   2.756921   5.815022   1.779188   1.780581
    20  H    2.476564   3.919555   2.143239   3.601962   4.373211
    21  H    4.991382   6.240353   2.187610   5.828707   6.570620
    22  H    6.168814   6.849181   2.173229   6.645065   7.035822
    23  H    5.546643   6.574642   2.196383   5.503147   6.187460
    24  H    4.191278   4.640925   2.184785   5.774207   5.967542
    25  H    4.284243   3.776441   2.187075   5.372564   5.046167
    26  H    5.572221   5.504933   2.176798   6.590623   6.493566
    27  C    3.602195   4.723399   2.566056   2.858445   3.783125
    28  C    3.877775   5.587064   3.579998   3.286181   4.670362
    29  C    5.017880   6.682314   4.770165   3.822075   5.284890
    30  C    5.771297   7.016120   5.147730   3.969470   5.148663
    31  C    5.587486   6.347040   4.498268   3.615175   4.352315
    32  C    4.596204   5.187995   3.215513   3.050086   3.589230
    33  H    4.930501   4.957308   1.095377   4.865696   4.813344
    34  H    3.606370   5.653620   3.762320   3.764916   5.214918
    35  H    5.561819   7.463395   5.634680   4.568865   6.161625
    36  H    6.735724   7.988320   6.196914   4.786050   5.952047
    37  H    6.455849   6.925762   5.226396   4.258538   4.690689
    38  H    4.862480   4.910973   3.125917   3.370839   3.340658
                   11         12         13         14         15
    11  H    0.000000
    12  H    1.787309   0.000000
    13  H    1.770513   1.766067   0.000000
    14  H    3.782311   4.338406   3.722706   0.000000
    15  H    2.569614   3.783616   3.032519   1.774603   0.000000
    16  H    3.155280   3.757094   2.501023   1.781396   1.780672
    17  C    4.939639   4.917293   6.302790   6.367931   5.923464
    18  C    3.945677   4.744662   5.483123   4.730677   4.035951
    19  H    3.809581   3.102379   2.596551   3.102576   3.765018
    20  H    2.299155   2.248440   3.554484   4.511702   3.843529
    21  H    4.588586   4.630375   6.038664   6.667575   5.966394
    22  H    5.803715   5.953558   7.256636   7.019207   6.562836
    23  H    5.461545   5.078991   6.617348   6.790360   6.547358
    24  H    3.450816   4.447411   5.147875   5.060600   4.009232
    25  H    3.809787   4.769450   5.195646   3.844517   3.235841
    26  H    5.001043   5.817710   6.568990   5.591331   4.948791
    27  C    3.998426   3.061250   4.564762   4.989913   5.067781
    28  C    4.290887   2.999793   4.721132   6.032220   5.921326
    29  C    5.566066   4.072512   5.724281   7.051819   7.143807
    30  C    6.419014   4.957821   6.468730   7.183431   7.595742
    31  C    6.226103   4.992320   6.353518   6.329904   6.949161
    32  C    5.122837   4.168234   5.471602   5.177001   5.691160
    33  H    4.860761   4.933560   5.982432   4.876070   4.917037
    34  H    3.841323   2.657101   4.419458   6.263577   5.847248
    35  H    6.081981   4.524599   6.168179   7.924008   7.900868
    36  H    7.426194   5.888331   7.359735   8.130386   8.616671
    37  H    7.130265   5.940536   7.180064   6.756866   7.588524
    38  H    5.339055   4.667683   5.735109   4.690926   5.408041
                   16         17         18         19         20
    16  H    0.000000
    17  C    7.073121   0.000000
    18  C    5.561818   2.533796   0.000000
    19  H    2.536693   6.937914   6.290753   0.000000
    20  H    4.688033   2.757820   2.724316   4.581206   0.000000
    21  H    7.116833   1.098522   2.814680   7.054207   2.554012
    22  H    7.854306   1.095291   2.742259   7.892278   3.742214
    23  H    7.498369   1.094267   3.497820   6.989752   3.167621
    24  H    5.555365   2.803772   1.098719   6.401416   2.520925
    25  H    4.822940   3.492244   1.093173   5.825371   3.100325
    26  H    6.542286   2.754819   1.095587   7.334919   3.724228
    27  C    5.480840   2.990112   3.914519   4.449420   2.143463
    28  C    6.186072   3.520495   4.856700   4.914845   2.595918
    29  C    7.202027   4.557197   6.151573   5.536053   3.996488
    30  C    7.568582   5.072764   6.626340   5.723825   4.807272
    31  C    7.001429   4.717188   5.968627   5.324288   4.576029
    32  C    5.957254   3.729461   4.628461   4.680867   3.427088
    33  H    6.012144   2.162374   2.155166   5.977884   3.037322
    34  H    6.194500   3.573319   4.809965   5.177156   2.334960
    35  H    7.898843   5.254891   6.955019   6.183482   4.668562
    36  H    8.485061   6.036468   7.690819   6.479103   5.871683
    37  H    7.572798   5.503918   6.670022   5.843211   5.536049
    38  H    5.759986   3.941125   4.391644   4.751882   3.779799
                   21         22         23         24         25
    21  H    0.000000
    22  H    1.772226   0.000000
    23  H    1.775070   1.772936   0.000000
    24  H    2.638292   3.108862   3.824300   0.000000
    25  H    3.826534   3.742886   4.348859   1.780595   0.000000
    26  H    3.138669   2.507942   3.753539   1.772733   1.772602
    27  C    3.318548   4.007546   2.662596   4.207685   4.234434
    28  C    3.499437   4.581032   3.034214   4.894446   5.317865
    29  C    4.616136   5.532060   3.811635   6.257727   6.608774
    30  C    5.404081   5.945579   4.213105   6.943466   6.985344
    31  C    5.287108   5.513567   3.949143   6.477039   6.198570
    32  C    4.349483   4.562264   3.209094   5.176658   4.804916
    33  H    3.081056   2.518151   2.503390   3.074336   2.487621
    34  H    3.216655   4.639579   3.305366   4.603033   5.345562
    35  H    5.139917   6.211291   4.513013   6.936281   7.471238
    36  H    6.360212   6.856952   5.108421   8.012201   8.056615
    37  H    6.185887   6.186409   4.721999   7.288961   6.822189
    38  H    4.717753   4.618885   3.599237   5.120177   4.394236
                   26         27         28         29         30
    26  H    0.000000
    27  C    4.730762   0.000000
    28  C    5.664760   1.403588   0.000000
    29  C    6.892923   2.439066   1.403422   0.000000
    30  C    7.301471   2.818905   2.428857   1.402190   0.000000
    31  C    6.601891   2.434516   2.797200   2.426718   1.405103
    32  C    5.311859   1.407014   2.423917   2.805440   2.433496
    33  H    2.509655   2.810093   4.028472   5.032663   5.109792
    34  H    5.642730   2.158808   1.087402   2.159992   3.412442
    35  H    7.691112   3.419679   2.160717   1.085180   2.161051
    36  H    8.334002   3.903988   3.413555   2.161833   1.085084
    37  H    7.227944   3.415813   3.882400   3.410286   2.161506
    38  H    4.999717   2.156980   3.405239   3.891058   3.419403
                   31         32         33         34         35
    31  C    0.000000
    32  C    1.400326   0.000000
    33  H    4.211187   2.946484   0.000000
    34  H    3.884592   3.409637   4.457063   0.000000
    35  H    3.412103   3.890612   5.997262   2.484723   0.000000
    36  H    2.164402   3.416308   6.111813   4.310122   2.492044
    37  H    1.085208   2.155956   4.745564   4.969795   4.309775
    38  H    2.163467   1.085732   2.547659   4.303024   4.976214
                   36         37         38
    36  H    0.000000
    37  H    2.491514   0.000000
    38  H    4.316307   2.489559   0.000000
 Stoichiometry    C14H22NO(2)
 Framework group  C1[X(C14H22NO)]
 Deg. of freedom   108
 Full point group                 C1      NOp   1
 Largest Abelian subgroup         C1      NOp   1
 Largest concise Abelian subgroup C1      NOp   1
                         Standard orientation:                         
 ---------------------------------------------------------------------
 Center     Atomic      Atomic             Coordinates (Angstroms)
 Number     Number       Type             X           Y           Z
 ---------------------------------------------------------------------
      1          8           0       -1.468327    0.150458   -1.665315
      2          7           0       -1.301946   -0.009969   -0.364293
      3          6           0       -1.904741   -1.246914    0.238735
      4          6           0       -1.165422   -2.482791   -0.323620
      5          6           0       -0.221834    0.777346    0.284700
      6          6           0       -1.795665   -1.213277    1.773551
      7          6           0       -3.388652   -1.275888   -0.177601
      8          6           0       -0.227024    2.233582   -0.247898
      9          1           0       -0.115617   -2.488768   -0.013271
     10          1           0       -1.206220   -2.473787   -1.416607
     11          1           0       -2.267022   -0.315907    2.189812
     12          1           0       -0.756206   -1.267771    2.113230
     13          1           0       -2.320269   -2.085564    2.175801
     14          1           0       -3.476977   -1.264215   -1.265994
     15          1           0       -3.917382   -0.403656    0.222192
     16          1           0       -3.863524   -2.183472    0.210122
     17          6           0        0.892654    3.047259    0.427542
     18          6           0       -1.598419    2.891484   -0.008820
     19          1           0       -1.643440   -3.398914    0.040598
     20          1           0       -0.456034    0.826724    1.352657
     21          1           0        0.759775    3.066703    1.517824
     22          1           0        0.870603    4.082182    0.069617
     23          1           0        1.882818    2.633694    0.213159
     24          1           0       -1.834866    2.917291    1.063845
     25          1           0       -2.392833    2.349901   -0.529033
     26          1           0       -1.592539    3.924044   -0.375012
     27          6           0        1.125776    0.082993    0.112022
     28          6           0        1.914510   -0.224306    1.231631
     29          6           0        3.160715   -0.851408    1.078955
     30          6           0        3.626755   -1.178958   -0.202316
     31          6           0        2.840634   -0.874571   -1.326450
     32          6           0        1.598286   -0.247305   -1.171460
     33          1           0       -0.041657    2.195689   -1.326811
     34          1           0        1.558303    0.032388    2.226451
     35          1           0        3.761746   -1.082765    1.952369
     36          1           0        4.588794   -1.665609   -0.325035
     37          1           0        3.195829   -1.128910   -2.319840
     38          1           0        0.981528   -0.026656   -2.037334
 ---------------------------------------------------------------------
 Rotational constants (GHZ):           0.6652687           0.4477488           0.3415301
 Leave Link  202 at Tue Jan  7 16:43:09 2025, MaxMem=  4026531840 cpu:               0.1 elap:               0.3
 (Enter /usr/local/intel/g16/l301.exe)
 Standard basis: def2TZVP (5D, 7F)
 Ernie: Thresh=  0.10000D-02 Tol=  0.10000D-05 Strict=F.
 There are   708 symmetry adapted cartesian basis functions of A   symmetry.
 There are   628 symmetry adapted basis functions of A   symmetry.
   628 basis functions,   992 primitive gaussians,   708 cartesian basis functions
    61 alpha electrons       60 beta electrons
       nuclear repulsion energy      1180.2511382486 Hartrees.
 IExCor= 4336 DFT=T Ex+Corr=M062X ExCW=0 ScaHFX=  0.540000
 ScaDFX=  1.000000  1.000000  1.000000  1.000000 ScalE2=  1.000000  1.000000
 IRadAn=      5 IRanWt=     -1 IRanGd=            0 ICorTp=0 IEmpDi=  4
 NAtoms=   38 NActive=   38 NUniq=   38 SFac= 1.00D+00 NAtFMM=   60 NAOKFM=F Big=F
 Integral buffers will be    131072 words long.
 Raffenetti 2 integral format.
 Two-electron integral symmetry is turned on.
 Leave Link  301 at Tue Jan  7 16:43:09 2025, MaxMem=  4026531840 cpu:               0.9 elap:               0.2
 (Enter /usr/local/intel/g16/l302.exe)
 NPDir=0 NMtPBC=     1 NCelOv=     1 NCel=       1 NClECP=     1 NCelD=      1
         NCelK=      1 NCelE2=     1 NClLst=     1 CellRange=     0.0.
 One-electron integrals computed using PRISM.
 One-electron integral symmetry used in STVInt
   1 Symmetry operations used in ECPInt.
 ECPInt:  NShTT=   34980 NPrTT=  102796 LenC2=   32850 LenP2D=   71831.
 LDataN:  DoStor=T MaxTD1= 6 Len=  172
 NBasis=   628 RedAO= T EigKep=  7.88D-06  NBF=   628
 NBsUse=   628 1.00D-06 EigRej= -1.00D+00 NBFU=   628
 Precomputing XC quadrature grid using
 IXCGrd= 4 IRadAn=           5 IRanWt=          -1 IRanGd=           0 AccXCQ= 0.00D+00.
 Generated NRdTot=       0 NPtTot=           0 NUsed=           0 NTot=          32
 NSgBfM=   702   702   702   702   702 MxSgAt=    38 MxSgA2=    38.
 Leave Link  302 at Tue Jan  7 16:43:10 2025, MaxMem=  4026531840 cpu:              19.1 elap:               1.0
 (Enter /usr/local/intel/g16/l303.exe)
 DipDrv:  MaxL=1.
 Leave Link  303 at Tue Jan  7 16:43:11 2025, MaxMem=  4026531840 cpu:               2.9 elap:               0.2
 (Enter /usr/local/intel/g16/l401.exe)
 ExpMin= 9.52D-02 ExpMax= 2.70D+04 ExpMxC= 9.22D+02 IAcc=3 IRadAn=         5 AccDes= 0.00D+00
 Harris functional with IExCor= 1009 and IRadAn=       5 diagonalized for initial guess.
 HarFok:  IExCor= 1009 AccDes= 0.00D+00 IRadAn=         5 IDoV= 1 UseB2=F ITyADJ=14
 ICtDFT=  3500011 ScaDFX=  1.000000  1.000000  1.000000  1.000000
 FoFCou: FMM=F IPFlag=           0 FMFlag=      100000 FMFlg1=           0
         NFxFlg=           0 DoJE=T BraDBF=F KetDBF=T FulRan=T
         wScrn=  0.000000 ICntrl=       500 IOpCl=  0 I1Cent=   200000004 NGrid=           0
         NMat0=    1 NMatS0=      1 NMatT0=    0 NMatD0=    1 NMtDS0=    0 NMtDT0=    0
 Petite list used in FoFCou.
 Harris En= -676.367802200939    
 JPrj=0 DoOrth=F DoCkMO=F.
 Initial guess <Sx>= 0.0000 <Sy>= 0.0000 <Sz>= 0.5000 <S**2>= 0.7500 S= 0.5000
 Leave Link  401 at Tue Jan  7 16:43:15 2025, MaxMem=  4026531840 cpu:              80.9 elap:               4.1
 (Enter /usr/local/intel/g16/l502.exe)
 Integral symmetry usage will be decided dynamically.
 UHF open shell SCF:
 Using DIIS extrapolation, IDIIS=  1040.
 NGot=  4026531840 LenX=  4025507794 LenY=  4025005822
 Requested convergence on RMS density matrix=1.00D-08 within 128 cycles.
 Requested convergence on MAX density matrix=1.00D-06.
 Requested convergence on             energy=1.00D-06.
 No special actions if energy rises.
 Fock matrices will be formed incrementally for  20 cycles.
 Integral accuracy reduced to 1.0D-05 until final iterations.

 Cycle   1  Pass 0  IDiag  1:
 FoFJK:  IHMeth= 1 ICntrl=       0 DoSepK=F KAlg= 0 I1Cent=           0 FoldK=F
 IRaf= 890000000 NMat=       1 IRICut=       1 DoRegI=T DoRafI=F ISym2E= 0 IDoP0=0 IntGTp=1.
 FoFCou: FMM=F IPFlag=           0 FMFlag=      100000 FMFlg1=           0
         NFxFlg=           0 DoJE=F BraDBF=F KetDBF=F FulRan=T
         wScrn=  0.000000 ICntrl=         0 IOpCl=  1 I1Cent=           0 NGrid=           0
         NMat0=    1 NMatS0=      1 NMatT0=    0 NMatD0=    1 NMtDS0=    0 NMtDT0=    0
 Symmetry not used in FoFCou.
 E= -676.032571371620    
 DIIS: error= 2.32D-02 at cycle   1 NSaved=   1.
 NSaved= 1 IEnMin= 1 EnMin= -676.032571371620     IErMin= 1 ErrMin= 2.32D-02
 ErrMax= 2.32D-02  0.00D+00 EMaxC= 1.00D-01 BMatC= 2.56D+00 BMatP= 2.56D+00
 IDIUse=3 WtCom= 7.68D-01 WtEn= 2.32D-01
 Coeff-Com:  0.100D+01
 Coeff-En:   0.100D+01
 Coeff:      0.100D+01
 Gap=     0.374 Goal=   None    Shift=    0.000
 Gap=     0.217 Goal=   None    Shift=    0.000
 GapD=    0.217 DampG=1.000 DampE=0.500 DampFc=0.5000 IDamp=-1.
 Damping current iteration by 5.00D-01
 RMSDP=2.44D-03 MaxDP=1.46D-01              OVMax= 1.74D-01

 Cycle   2  Pass 0  IDiag  1:
 RMSU=  1.21D-03    CP:  9.73D-01
 E= -676.310415693191     Delta-E=       -0.277844321571 Rises=F Damp=T
 DIIS: error= 5.63D-03 at cycle   2 NSaved=   2.
 NSaved= 2 IEnMin= 2 EnMin= -676.310415693191     IErMin= 2 ErrMin= 5.63D-03
 ErrMax= 5.63D-03  0.00D+00 EMaxC= 1.00D-01 BMatC= 2.00D-01 BMatP= 2.56D+00
 IDIUse=3 WtCom= 9.44D-01 WtEn= 5.63D-02
 Coeff-Com: -0.501D-01 0.105D+01
 Coeff-En:   0.000D+00 0.100D+01
 Coeff:     -0.473D-01 0.105D+01
 Gap=     0.344 Goal=   None    Shift=    0.000
 Gap=     0.281 Goal=   None    Shift=    0.000
 RMSDP=1.10D-03 MaxDP=9.48D-02 DE=-2.78D-01 OVMax= 1.36D-01

 Cycle   3  Pass 0  IDiag  1:
 RMSU=  1.02D-03    CP:  9.52D-01  1.32D+00
 E= -676.570055269552     Delta-E=       -0.259639576361 Rises=F Damp=F
 DIIS: error= 5.98D-03 at cycle   3 NSaved=   3.
 NSaved= 3 IEnMin= 3 EnMin= -676.570055269552     IErMin= 2 ErrMin= 5.63D-03
 ErrMax= 5.98D-03  0.00D+00 EMaxC= 1.00D-01 BMatC= 1.31D-01 BMatP= 2.00D-01
 IDIUse=3 WtCom= 9.40D-01 WtEn= 5.98D-02
 Coeff-Com: -0.812D-01 0.491D+00 0.590D+00
 Coeff-En:   0.000D+00 0.000D+00 0.100D+01
 Coeff:     -0.764D-01 0.461D+00 0.615D+00
 Gap=     0.283 Goal=   None    Shift=    0.000
 Gap=     0.273 Goal=   None    Shift=    0.000
 RMSDP=3.55D-04 MaxDP=2.52D-02 DE=-2.60D-01 OVMax= 8.93D-02

 Cycle   4  Pass 0  IDiag  1:
 RMSU=  3.33D-04    CP:  9.56D-01  1.40D+00  9.34D-01
 E= -676.588008079051     Delta-E=       -0.017952809499 Rises=F Damp=F
 DIIS: error= 2.84D-03 at cycle   4 NSaved=   4.
 NSaved= 4 IEnMin= 4 EnMin= -676.588008079051     IErMin= 4 ErrMin= 2.84D-03
 ErrMax= 2.84D-03  0.00D+00 EMaxC= 1.00D-01 BMatC= 3.73D-02 BMatP= 1.31D-01
 IDIUse=3 WtCom= 9.72D-01 WtEn= 2.84D-02
 Coeff-Com: -0.279D-01 0.864D-01 0.370D+00 0.572D+00
 Coeff-En:   0.000D+00 0.000D+00 0.234D+00 0.766D+00
 Coeff:     -0.271D-01 0.840D-01 0.366D+00 0.577D+00
 Gap=     0.280 Goal=   None    Shift=    0.000
 Gap=     0.277 Goal=   None    Shift=    0.000
 RMSDP=1.77D-04 MaxDP=1.83D-02 DE=-1.80D-02 OVMax= 2.31D-02

 Cycle   5  Pass 0  IDiag  1:
 RMSU=  1.31D-04    CP:  9.52D-01  1.38D+00  9.68D-01  6.79D-01
 E= -676.594935595719     Delta-E=       -0.006927516668 Rises=F Damp=F
 DIIS: error= 3.63D-04 at cycle   5 NSaved=   5.
 NSaved= 5 IEnMin= 5 EnMin= -676.594935595719     IErMin= 5 ErrMin= 3.63D-04
 ErrMax= 3.63D-04  0.00D+00 EMaxC= 1.00D-01 BMatC= 7.49D-04 BMatP= 3.73D-02
 IDIUse=3 WtCom= 9.96D-01 WtEn= 3.63D-03
 Coeff-Com: -0.548D-02 0.758D-02 0.117D+00 0.212D+00 0.669D+00
 Coeff-En:   0.000D+00 0.000D+00 0.000D+00 0.000D+00 0.100D+01
 Coeff:     -0.546D-02 0.756D-02 0.116D+00 0.211D+00 0.671D+00
 Gap=     0.276 Goal=   None    Shift=    0.000
 Gap=     0.279 Goal=   None    Shift=    0.000
 RMSDP=4.24D-05 MaxDP=5.52D-03 DE=-6.93D-03 OVMax= 9.00D-03

 Cycle   6  Pass 0  IDiag  1:
 RMSU=  3.83D-05    CP:  9.53D-01  1.38D+00  9.77D-01  7.18D-01  9.60D-01
 E= -676.595134253308     Delta-E=       -0.000198657588 Rises=F Damp=F
 DIIS: error= 1.60D-04 at cycle   6 NSaved=   6.
 NSaved= 6 IEnMin= 6 EnMin= -676.595134253308     IErMin= 6 ErrMin= 1.60D-04
 ErrMax= 1.60D-04  0.00D+00 EMaxC= 1.00D-01 BMatC= 1.59D-04 BMatP= 7.49D-04
 IDIUse=3 WtCom= 9.98D-01 WtEn= 1.60D-03
 Coeff-Com:  0.275D-02-0.103D-01-0.554D-02-0.151D-01 0.251D+00 0.777D+00
 Coeff-En:   0.000D+00 0.000D+00 0.000D+00 0.000D+00 0.000D+00 0.100D+01
 Coeff:      0.274D-02-0.103D-01-0.553D-02-0.151D-01 0.251D+00 0.777D+00
 Gap=     0.278 Goal=   None    Shift=    0.000
 Gap=     0.278 Goal=   None    Shift=    0.000
 RMSDP=3.31D-05 MaxDP=2.21D-03 DE=-1.99D-04 OVMax= 3.95D-03

 Cycle   7  Pass 0  IDiag  1:
 RMSU=  2.08D-05    CP:  9.52D-01  1.38D+00  9.83D-01  7.25D-01  1.13D+00
                    CP:  1.24D+00
 E= -676.595192549188     Delta-E=       -0.000058295880 Rises=F Damp=F
 DIIS: error= 8.97D-05 at cycle   7 NSaved=   7.
 NSaved= 7 IEnMin= 7 EnMin= -676.595192549188     IErMin= 7 ErrMin= 8.97D-05
 ErrMax= 8.97D-05  0.00D+00 EMaxC= 1.00D-01 BMatC= 3.17D-05 BMatP= 1.59D-04
 IDIUse=1 WtCom= 1.00D+00 WtEn= 0.00D+00
 Coeff-Com:  0.223D-02-0.506D-02-0.228D-01-0.567D-01-0.653D-01 0.202D+00
 Coeff-Com:  0.946D+00
 Coeff:      0.223D-02-0.506D-02-0.228D-01-0.567D-01-0.653D-01 0.202D+00
 Coeff:      0.946D+00
 Gap=     0.278 Goal=   None    Shift=    0.000
 Gap=     0.279 Goal=   None    Shift=    0.000
 RMSDP=3.30D-05 MaxDP=2.33D-03 DE=-5.83D-05 OVMax= 3.41D-03

 Cycle   8  Pass 0  IDiag  1:
 RMSU=  1.71D-05    CP:  9.52D-01  1.38D+00  9.89D-01  7.39D-01  1.27D+00
                    CP:  1.66D+00  1.59D+00
 E= -676.595211692228     Delta-E=       -0.000019143040 Rises=F Damp=F
 DIIS: error= 6.73D-05 at cycle   8 NSaved=   8.
 NSaved= 8 IEnMin= 8 EnMin= -676.595211692228     IErMin= 8 ErrMin= 6.73D-05
 ErrMax= 6.73D-05  0.00D+00 EMaxC= 1.00D-01 BMatC= 1.07D-05 BMatP= 3.17D-05
 IDIUse=1 WtCom= 1.00D+00 WtEn= 0.00D+00
 Coeff-Com:  0.687D-03-0.757D-03-0.909D-02-0.284D-01-0.750D-01-0.446D-01
 Coeff-Com:  0.483D+00 0.674D+00
 Coeff:      0.687D-03-0.757D-03-0.909D-02-0.284D-01-0.750D-01-0.446D-01
 Coeff:      0.483D+00 0.674D+00
 Gap=     0.278 Goal=   None    Shift=    0.000
 Gap=     0.279 Goal=   None    Shift=    0.000
 RMSDP=2.14D-05 MaxDP=1.33D-03 DE=-1.91D-05 OVMax= 1.45D-03

 Cycle   9  Pass 0  IDiag  1:
 RMSU=  9.89D-06    CP:  9.52D-01  1.38D+00  9.91D-01  7.40D-01  1.33D+00
                    CP:  1.86D+00  2.01D+00  1.70D+00
 E= -676.595216585373     Delta-E=       -0.000004893146 Rises=F Damp=F
 DIIS: error= 2.54D-05 at cycle   9 NSaved=   9.
 NSaved= 9 IEnMin= 9 EnMin= -676.595216585373     IErMin= 9 ErrMin= 2.54D-05
 ErrMax= 2.54D-05  0.00D+00 EMaxC= 1.00D-01 BMatC= 1.81D-06 BMatP= 1.07D-05
 IDIUse=1 WtCom= 1.00D+00 WtEn= 0.00D+00
 Coeff-Com: -0.400D-03 0.112D-02 0.531D-02 0.775D-02 0.590D-02-0.703D-01
 Coeff-Com: -0.169D+00 0.180D+00 0.104D+01
 Coeff:     -0.400D-03 0.112D-02 0.531D-02 0.775D-02 0.590D-02-0.703D-01
 Coeff:     -0.169D+00 0.180D+00 0.104D+01
 Gap=     0.278 Goal=   None    Shift=    0.000
 Gap=     0.279 Goal=   None    Shift=    0.000
 RMSDP=3.27D-05 MaxDP=1.50D-03 DE=-4.89D-06 OVMax= 9.54D-04

 Cycle  10  Pass 0  IDiag  1:
 RMSU=  1.09D-05    CP:  9.52D-01  1.39D+00  9.95D-01  7.46D-01  1.38D+00
                    CP:  2.09D+00  2.67D+00  2.81D+00  2.48D+00
 E= -676.595217428574     Delta-E=       -0.000000843200 Rises=F Damp=F
 DIIS: error= 1.39D-05 at cycle  10 NSaved=  10.
 NSaved=10 IEnMin=10 EnMin= -676.595217428574     IErMin=10 ErrMin= 1.39D-05
 ErrMax= 1.39D-05  0.00D+00 EMaxC= 1.00D-01 BMatC= 3.38D-07 BMatP= 1.81D-06
 IDIUse=1 WtCom= 1.00D+00 WtEn= 0.00D+00
 Coeff-Com: -0.186D-03 0.394D-03 0.311D-02 0.579D-02 0.122D-01-0.210D-01
 Coeff-Com: -0.122D+00-0.147D-01 0.355D+00 0.782D+00
 Coeff:     -0.186D-03 0.394D-03 0.311D-02 0.579D-02 0.122D-01-0.210D-01
 Coeff:     -0.122D+00-0.147D-01 0.355D+00 0.782D+00
 Gap=     0.278 Goal=   None    Shift=    0.000
 Gap=     0.279 Goal=   None    Shift=    0.000
 RMSDP=2.86D-05 MaxDP=1.12D-03 DE=-8.43D-07 OVMax= 2.78D-04

 Cycle  11  Pass 0  IDiag  1:
 RMSU=  1.68D-05    CP:  9.52D-01  1.39D+00  9.99D-01  7.51D-01  1.42D+00
                    CP:  2.26D+00  3.00D+00  3.00D+00  3.00D+00  2.07D+00
 E= -676.595219018804     Delta-E=       -0.000001590231 Rises=F Damp=F
 DIIS: error= 1.66D-05 at cycle  11 NSaved=  11.
 NSaved=11 IEnMin=11 EnMin= -676.595219018804     IErMin=10 ErrMin= 1.39D-05
 ErrMax= 1.66D-05  0.00D+00 EMaxC= 1.00D-01 BMatC= 1.84D-07 BMatP= 3.38D-07
 IDIUse=1 WtCom= 1.00D+00 WtEn= 0.00D+00
 Coeff-Com: -0.288D-04 0.385D-04 0.918D-03 0.168D-02 0.534D-02-0.212D-02
 Coeff-Com: -0.369D-01-0.239D-01 0.393D-01 0.371D+00 0.644D+00
 Coeff:     -0.288D-04 0.385D-04 0.918D-03 0.168D-02 0.534D-02-0.212D-02
 Coeff:     -0.369D-01-0.239D-01 0.393D-01 0.371D+00 0.644D+00
 Gap=     0.278 Goal=   None    Shift=    0.000
 Gap=     0.279 Goal=   None    Shift=    0.000
 RMSDP=2.75D-05 MaxDP=1.14D-03 DE=-1.59D-06 OVMax= 6.95D-05

 Cycle  12  Pass 0  IDiag  1:
 RMSU=  8.38D-06    CP:  9.52D-01  1.40D+00  1.00D+00  7.53D-01  1.45D+00
                    CP:  2.41D+00  3.00D+00  3.00D+00  3.00D+00  3.00D+00
                    CP:  2.31D+00
 E= -676.595221592818     Delta-E=       -0.000002574014 Rises=F Damp=F
 DIIS: error= 2.05D-05 at cycle  12 NSaved=  12.
 NSaved=12 IEnMin=12 EnMin= -676.595221592818     IErMin=10 ErrMin= 1.39D-05
 ErrMax= 2.05D-05  0.00D+00 EMaxC= 1.00D-01 BMatC= 2.21D-07 BMatP= 1.84D-07
 IDIUse=1 WtCom= 1.00D+00 WtEn= 0.00D+00
 Coeff-Com:  0.238D-06-0.560D-04 0.792D-03 0.167D-02 0.715D-02 0.420D-02
 Coeff-Com: -0.362D-01-0.539D-01-0.520D-01 0.544D+00 0.142D+01-0.839D+00
 Coeff:      0.238D-06-0.560D-04 0.792D-03 0.167D-02 0.715D-02 0.420D-02
 Coeff:     -0.362D-01-0.539D-01-0.520D-01 0.544D+00 0.142D+01-0.839D+00
 Gap=     0.278 Goal=   None    Shift=    0.000
 Gap=     0.279 Goal=   None    Shift=    0.000
 RMSDP=2.75D-05 MaxDP=1.32D-03 DE=-2.57D-06 OVMax= 2.57D-05

 Cycle  13  Pass 0  IDiag  1:
 RMSU=  4.59D-06    CP:  9.52D-01  1.39D+00  9.99D-01  7.53D-01  1.44D+00
                    CP:  2.31D+00  3.00D+00  3.00D+00  3.00D+00  2.11D+00
                    CP:  1.10D+00 -4.85D-01
 E= -676.595219213144     Delta-E=        0.000002379674 Rises=F Damp=F
 DIIS: error= 1.63D-05 at cycle  13 NSaved=  13.
 NSaved=13 IEnMin=12 EnMin= -676.595221592818     IErMin=10 ErrMin= 1.39D-05
 ErrMax= 1.63D-05  0.00D+00 EMaxC= 1.00D-01 BMatC= 1.54D-07 BMatP= 1.84D-07
 IDIUse=1 WtCom= 1.00D+00 WtEn= 0.00D+00
 Coeff-Com:  0.787D-04-0.221D-03-0.431D-03-0.704D-03 0.234D-02 0.130D-01
 Coeff-Com:  0.142D-01-0.459D-01-0.203D+00 0.193D+00 0.150D+01-0.237D+01
 Coeff-Com:  0.189D+01
 Coeff:      0.787D-04-0.221D-03-0.431D-03-0.704D-03 0.234D-02 0.130D-01
 Coeff:      0.142D-01-0.459D-01-0.203D+00 0.193D+00 0.150D+01-0.237D+01
 Coeff:      0.189D+01
 Gap=     0.278 Goal=   None    Shift=    0.000
 Gap=     0.279 Goal=   None    Shift=    0.000
 RMSDP=3.92D-05 MaxDP=1.79D-03 DE= 2.38D-06 OVMax= 5.23D-05

 Cycle  14  Pass 0  IDiag  1:
 RMSU=  1.06D-05    CP:  9.53D-01  1.39D+00  9.95D-01  7.56D-01  1.45D+00
                    CP:  2.21D+00  2.43D+00  3.00D+00  1.66D+00  4.28D-01
                    CP:  1.43D-01 -1.18D+00  3.00D+00
 E= -676.595215256120     Delta-E=        0.000003957024 Rises=F Damp=F
 DIIS: error= 9.87D-06 at cycle  14 NSaved=  14.
 NSaved=14 IEnMin=12 EnMin= -676.595221592818     IErMin=14 ErrMin= 9.87D-06
 ErrMax= 9.87D-06  0.00D+00 EMaxC= 1.00D-01 BMatC= 9.63D-08 BMatP= 1.54D-07
 IDIUse=1 WtCom= 1.00D+00 WtEn= 0.00D+00
 Coeff-Com:  0.642D-04-0.179D-03-0.427D-03-0.749D-03 0.135D-02 0.102D-01
 Coeff-Com:  0.146D-01-0.326D-01-0.161D+00 0.116D+00 0.106D+01-0.183D+01
 Coeff-Com:  0.129D+01 0.533D+00
 Coeff:      0.642D-04-0.179D-03-0.427D-03-0.749D-03 0.135D-02 0.102D-01
 Coeff:      0.146D-01-0.326D-01-0.161D+00 0.116D+00 0.106D+01-0.183D+01
 Coeff:      0.129D+01 0.533D+00
 Gap=     0.278 Goal=   None    Shift=    0.000
 Gap=     0.279 Goal=   None    Shift=    0.000
 RMSDP=1.38D-05 MaxDP=4.98D-04 DE= 3.96D-06 OVMax= 2.44D-05

 Cycle  15  Pass 0  IDiag  1:
 RMSU=  4.52D-06    CP:  9.53D-01  1.39D+00  9.94D-01  7.54D-01  1.44D+00
                    CP:  2.13D+00  2.24D+00  2.81D+00  1.15D+00 -1.69D-01
                    CP: -8.65D-02 -9.80D-01  3.00D+00  1.42D+00
 E= -676.595211079122     Delta-E=        0.000004176998 Rises=F Damp=F
 DIIS: error= 9.91D-06 at cycle  15 NSaved=  15.
 NSaved=15 IEnMin=12 EnMin= -676.595221592818     IErMin=14 ErrMin= 9.87D-06
 ErrMax= 9.91D-06  0.00D+00 EMaxC= 1.00D-01 BMatC= 8.81D-08 BMatP= 9.63D-08
 IDIUse=1 WtCom= 1.00D+00 WtEn= 0.00D+00
 Coeff-Com:  0.609D-04-0.171D-03-0.389D-03-0.659D-03 0.147D-02 0.993D-02
 Coeff-Com:  0.129D-01-0.334D-01-0.156D+00 0.134D+00 0.104D+01-0.159D+01
 Coeff-Com:  0.104D+01 0.217D+00 0.325D+00
 Coeff:      0.609D-04-0.171D-03-0.389D-03-0.659D-03 0.147D-02 0.993D-02
 Coeff:      0.129D-01-0.334D-01-0.156D+00 0.134D+00 0.104D+01-0.159D+01
 Coeff:      0.104D+01 0.217D+00 0.325D+00
 Gap=     0.278 Goal=   None    Shift=    0.000
 Gap=     0.279 Goal=   None    Shift=    0.000
 RMSDP=4.42D-06 MaxDP=2.97D-04 DE= 4.18D-06 OVMax= 8.97D-06

 Initial convergence to 1.0D-05 achieved.  Increase integral accuracy.
 Cycle  16  Pass 1  IDiag  1:
 E= -676.595258913802     Delta-E=       -0.000047834680 Rises=F Damp=F
 DIIS: error= 4.71D-04 at cycle   1 NSaved=   1.
 NSaved= 1 IEnMin= 1 EnMin= -676.595258913802     IErMin= 1 ErrMin= 4.71D-04
 ErrMax= 4.71D-04  0.00D+00 EMaxC= 1.00D-01 BMatC= 1.05D-04 BMatP= 1.05D-04
 IDIUse=3 WtCom= 9.95D-01 WtEn= 4.71D-03
 Coeff-Com:  0.100D+01
 Coeff-En:   0.100D+01
 Coeff:      0.100D+01
 Gap=     0.278 Goal=   None    Shift=    0.000
 Gap=     0.279 Goal=   None    Shift=    0.000
 RMSDP=4.42D-06 MaxDP=2.97D-04 DE=-4.78D-05 OVMax= 7.44D-04

 Cycle  17  Pass 1  IDiag  1:
 RMSU=  7.86D-04    CP:  9.80D-01
 E= -676.595274114537     Delta-E=       -0.000015200734 Rises=F Damp=F
 DIIS: error= 1.04D-05 at cycle   2 NSaved=   2.
 NSaved= 2 IEnMin= 2 EnMin= -676.595274114537     IErMin= 2 ErrMin= 1.04D-05
 ErrMax= 1.04D-05  0.00D+00 EMaxC= 1.00D-01 BMatC= 7.04D-08 BMatP= 1.05D-04
 IDIUse=1 WtCom= 1.00D+00 WtEn= 0.00D+00
 Coeff-Com: -0.160D-01 0.102D+01
 Coeff:     -0.160D-01 0.102D+01
 Gap=     0.278 Goal=   None    Shift=    0.000
 Gap=     0.279 Goal=   None    Shift=    0.000
 RMSDP=2.60D-05 MaxDP=1.25D-03 DE=-1.52D-05 OVMax= 4.08D-05

 Cycle  18  Pass 1  IDiag  1:
 RMSU=  1.24D-05    CP:  9.80D-01  1.03D+00
 E= -676.595274135518     Delta-E=       -0.000000020982 Rises=F Damp=F
 DIIS: error= 1.70D-06 at cycle   3 NSaved=   3.
 NSaved= 3 IEnMin= 3 EnMin= -676.595274135518     IErMin= 3 ErrMin= 1.70D-06
 ErrMax= 1.70D-06  0.00D+00 EMaxC= 1.00D-01 BMatC= 1.98D-08 BMatP= 7.04D-08
 IDIUse=1 WtCom= 1.00D+00 WtEn= 0.00D+00
 Coeff-Com: -0.604D-02 0.362D+00 0.644D+00
 Coeff:     -0.604D-02 0.362D+00 0.644D+00
 Gap=     0.278 Goal=   None    Shift=    0.000
 Gap=     0.279 Goal=   None    Shift=    0.000
 RMSDP=5.96D-07 MaxDP=4.56D-05 DE=-2.10D-08 OVMax= 2.69D-05

 Cycle  19  Pass 1  IDiag  1:
 RMSU=  2.68D-07    CP:  9.80D-01  1.03D+00  1.03D+00
 E= -676.595274138795     Delta-E=       -0.000000003277 Rises=F Damp=F
 DIIS: error= 1.58D-06 at cycle   4 NSaved=   4.
 NSaved= 4 IEnMin= 4 EnMin= -676.595274138795     IErMin= 4 ErrMin= 1.58D-06
 ErrMax= 1.58D-06  0.00D+00 EMaxC= 1.00D-01 BMatC= 7.82D-09 BMatP= 1.98D-08
 IDIUse=1 WtCom= 1.00D+00 WtEn= 0.00D+00
 Coeff-Com: -0.260D-03 0.404D-02 0.374D+00 0.622D+00
 Coeff:     -0.260D-03 0.404D-02 0.374D+00 0.622D+00
 Gap=     0.278 Goal=   None    Shift=    0.000
 Gap=     0.279 Goal=   None    Shift=    0.000
 RMSDP=3.37D-07 MaxDP=1.90D-05 DE=-3.28D-09 OVMax= 1.99D-05

 Cycle  20  Pass 1  IDiag  1:
 RMSU=  1.36D-07    CP:  9.80D-01  1.03D+00  1.04D+00  1.23D+00
 E= -676.595274140502     Delta-E=       -0.000000001706 Rises=F Damp=F
 DIIS: error= 4.64D-07 at cycle   5 NSaved=   5.
 NSaved= 5 IEnMin= 5 EnMin= -676.595274140502     IErMin= 5 ErrMin= 4.64D-07
 ErrMax= 4.64D-07  0.00D+00 EMaxC= 1.00D-01 BMatC= 1.02D-09 BMatP= 7.82D-09
 IDIUse=1 WtCom= 1.00D+00 WtEn= 0.00D+00
 Coeff-Com:  0.636D-03-0.440D-01 0.110D+00 0.326D+00 0.607D+00
 Coeff:      0.636D-03-0.440D-01 0.110D+00 0.326D+00 0.607D+00
 Gap=     0.278 Goal=   None    Shift=    0.000
 Gap=     0.279 Goal=   None    Shift=    0.000
 RMSDP=8.15D-08 MaxDP=7.74D-06 DE=-1.71D-09 OVMax= 7.89D-06

 Cycle  21  Pass 1  IDiag  1:
 RMSU=  3.95D-08    CP:  9.80D-01  1.03D+00  1.05D+00  1.38D+00  1.18D+00
 E= -676.595274140814     Delta-E=       -0.000000000312 Rises=F Damp=F
 DIIS: error= 1.97D-07 at cycle   6 NSaved=   6.
 NSaved= 6 IEnMin= 6 EnMin= -676.595274140814     IErMin= 6 ErrMin= 1.97D-07
 ErrMax= 1.97D-07  0.00D+00 EMaxC= 1.00D-01 BMatC= 9.76D-11 BMatP= 1.02D-09
 IDIUse=1 WtCom= 1.00D+00 WtEn= 0.00D+00
 Coeff-Com:  0.312D-04 0.795D-03-0.918D-01-0.128D+00-0.732D-01 0.129D+01
 Coeff:      0.312D-04 0.795D-03-0.918D-01-0.128D+00-0.732D-01 0.129D+01
 Gap=     0.278 Goal=   None    Shift=    0.000
 Gap=     0.279 Goal=   None    Shift=    0.000
 RMSDP=5.95D-08 MaxDP=5.80D-06 DE=-3.12D-10 OVMax= 1.25D-05

 Cycle  22  Pass 1  IDiag  1:
 RMSU=  2.96D-08    CP:  9.80D-01  1.03D+00  1.04D+00  1.46D+00  1.37D+00
                    CP:  1.87D+00
 E= -676.595274140972     Delta-E=       -0.000000000158 Rises=F Damp=F
 DIIS: error= 1.36D-07 at cycle   7 NSaved=   7.
 NSaved= 7 IEnMin= 7 EnMin= -676.595274140972     IErMin= 7 ErrMin= 1.36D-07
 ErrMax= 1.36D-07  0.00D+00 EMaxC= 1.00D-01 BMatC= 3.85D-11 BMatP= 9.76D-11
 IDIUse=1 WtCom= 1.00D+00 WtEn= 0.00D+00
 Coeff-Com: -0.130D-03 0.101D-01-0.607D-01-0.114D+00-0.177D+00 0.502D+00
 Coeff-Com:  0.840D+00
 Coeff:     -0.130D-03 0.101D-01-0.607D-01-0.114D+00-0.177D+00 0.502D+00
 Coeff:      0.840D+00
 Gap=     0.278 Goal=   None    Shift=    0.000
 Gap=     0.279 Goal=   None    Shift=    0.000
 RMSDP=2.32D-08 MaxDP=1.68D-06 DE=-1.58D-10 OVMax= 7.00D-06

 Cycle  23  Pass 1  IDiag  1:
 RMSU=  9.73D-09    CP:  9.80D-01  1.03D+00  1.04D+00  1.48D+00  1.40D+00
                    CP:  2.20D+00  1.38D+00
 E= -676.595274141023     Delta-E=       -0.000000000051 Rises=F Damp=F
 DIIS: error= 9.75D-08 at cycle   8 NSaved=   8.
 NSaved= 8 IEnMin= 8 EnMin= -676.595274141023     IErMin= 8 ErrMin= 9.75D-08
 ErrMax= 9.75D-08  0.00D+00 EMaxC= 1.00D-01 BMatC= 1.11D-11 BMatP= 3.85D-11
 IDIUse=1 WtCom= 1.00D+00 WtEn= 0.00D+00
 Coeff-Com: -0.562D-04 0.338D-02 0.585D-02 0.199D-02-0.485D-01-0.217D+00
 Coeff-Com:  0.295D+00 0.959D+00
 Coeff:     -0.562D-04 0.338D-02 0.585D-02 0.199D-02-0.485D-01-0.217D+00
 Coeff:      0.295D+00 0.959D+00
 Gap=     0.278 Goal=   None    Shift=    0.000
 Gap=     0.279 Goal=   None    Shift=    0.000
 RMSDP=1.36D-08 MaxDP=1.32D-06 DE=-5.09D-11 OVMax= 4.99D-06

 Cycle  24  Pass 1  IDiag  1:
 RMSU=  8.30D-09    CP:  9.80D-01  1.03D+00  1.04D+00  1.47D+00  1.38D+00
                    CP:  2.32D+00  1.57D+00  1.72D+00
 E= -676.595274141044     Delta-E=       -0.000000000021 Rises=F Damp=F
 DIIS: error= 5.09D-08 at cycle   9 NSaved=   9.
 NSaved= 9 IEnMin= 9 EnMin= -676.595274141044     IErMin= 9 ErrMin= 5.09D-08
 ErrMax= 5.09D-08  0.00D+00 EMaxC= 1.00D-01 BMatC= 3.27D-12 BMatP= 1.11D-11
 IDIUse=1 WtCom= 1.00D+00 WtEn= 0.00D+00
 Coeff-Com:  0.220D-04-0.210D-02 0.227D-01 0.400D-01 0.387D-01-0.255D+00
 Coeff-Com: -0.165D+00 0.385D+00 0.936D+00
 Coeff:      0.220D-04-0.210D-02 0.227D-01 0.400D-01 0.387D-01-0.255D+00
 Coeff:     -0.165D+00 0.385D+00 0.936D+00
 Gap=     0.278 Goal=   None    Shift=    0.000
 Gap=     0.279 Goal=   None    Shift=    0.000
 RMSDP=9.54D-09 MaxDP=1.07D-06 DE=-2.07D-11 OVMax= 3.16D-06

 Cycle  25  Pass 1  IDiag  1:
 RMSU=  3.05D-09    CP:  9.80D-01  1.03D+00  1.04D+00  1.47D+00  1.37D+00
                    CP:  2.32D+00  1.62D+00  2.39D+00  1.58D+00
 E= -676.595274141041     Delta-E=        0.000000000003 Rises=F Damp=F
 DIIS: error= 2.13D-08 at cycle  10 NSaved=  10.
 NSaved=10 IEnMin= 9 EnMin= -676.595274141044     IErMin=10 ErrMin= 2.13D-08
 ErrMax= 2.13D-08  0.00D+00 EMaxC= 1.00D-01 BMatC= 8.56D-13 BMatP= 3.27D-12
 IDIUse=1 WtCom= 1.00D+00 WtEn= 0.00D+00
 Coeff-Com:  0.233D-04-0.177D-02 0.940D-02 0.179D-01 0.298D-01-0.730D-01
 Coeff-Com: -0.140D+00-0.355D-01 0.428D+00 0.765D+00
 Coeff:      0.233D-04-0.177D-02 0.940D-02 0.179D-01 0.298D-01-0.730D-01
 Coeff:     -0.140D+00-0.355D-01 0.428D+00 0.765D+00
 Gap=     0.278 Goal=   None    Shift=    0.000
 Gap=     0.279 Goal=   None    Shift=    0.000
 RMSDP=3.89D-09 MaxDP=4.33D-07 DE= 2.96D-12 OVMax= 1.22D-06

 SCF Done:  E(UM062X) =  -676.595274141     A.U. after   25 cycles
            NFock= 25  Conv=0.39D-08     -V/T= 2.0061
 <Sx>= 0.0000 <Sy>= 0.0000 <Sz>= 0.5000 <S**2>= 0.7558 S= 0.5029
 <L.S>=  0.00000000000    
 KE= 6.725139847032D+02 PE=-3.931546979721D+03 EE= 1.402186582628D+03
 Annihilation of the first spin contaminant:
 S**2 before annihilation     0.7558,   after     0.7500
 Leave Link  502 at Tue Jan  7 16:55:53 2025, MaxMem=  4026531840 cpu:           15155.8 elap:             758.0
 (Enter /usr/local/intel/g16/l601.exe)
 Copying SCF densities to generalized density rwf, IOpCl= 1 IROHF=0.

 **********************************************************************

            Population analysis using the SCF Density.

 **********************************************************************

 Orbital symmetries:
 Alpha Orbitals:
       Occupied  (A) (A) (A) (A) (A) (A) (A) (A) (A) (A) (A) (A)
                 (A) (A) (A) (A) (A) (A) (A) (A) (A) (A) (A) (A)
                 (A) (A) (A) (A) (A) (A) (A) (A) (A) (A) (A) (A)
                 (A) (A) (A) (A) (A) (A) (A) (A) (A) (A) (A) (A)
                 (A) (A) (A) (A) (A) (A) (A) (A) (A) (A) (A) (A)
                 (A)
       Virtual   (A) (A) (A) (A) (A) (A) (A) (A) (A) (A) (A) (A)
                 (A) (A) (A) (A) (A) (A) (A) (A) (A) (A) (A) (A)
                 (A) (A) (A) (A) (A) (A) (A) (A) (A) (A) (A) (A)
                 (A) (A) (A) (A) (A) (A) (A) (A) (A) (A) (A) (A)
                 (A) (A) (A) (A) (A) (A) (A) (A) (A) (A) (A) (A)
                 (A) (A) (A) (A) (A) (A) (A) (A) (A) (A) (A) (A)
                 (A) (A) (A) (A) (A) (A) (A) (A) (A) (A) (A) (A)
                 (A) (A) (A) (A) (A) (A) (A) (A) (A) (A) (A) (A)
                 (A) (A) (A) (A) (A) (A) (A) (A) (A) (A) (A) (A)
                 (A) (A) (A) (A) (A) (A) (A) (A) (A) (A) (A) (A)
                 (A) (A) (A) (A) (A) (A) (A) (A) (A) (A) (A) (A)
                 (A) (A) (A) (A) (A) (A) (A) (A) (A) (A) (A) (A)
                 (A) (A) (A) (A) (A) (A) (A) (A) (A) (A) (A) (A)
                 (A) (A) (A) (A) (A) (A) (A) (A) (A) (A) (A) (A)
                 (A) (A) (A) (A) (A) (A) (A) (A) (A) (A) (A) (A)
                 (A) (A) (A) (A) (A) (A) (A) (A) (A) (A) (A) (A)
                 (A) (A) (A) (A) (A) (A) (A) (A) (A) (A) (A) (A)
                 (A) (A) (A) (A) (A) (A) (A) (A) (A) (A) (A) (A)
                 (A) (A) (A) (A) (A) (A) (A) (A) (A) (A) (A) (A)
                 (A) (A) (A) (A) (A) (A) (A) (A) (A) (A) (A) (A)
                 (A) (A) (A) (A) (A) (A) (A) (A) (A) (A) (A) (A)
                 (A) (A) (A) (A) (A) (A) (A) (A) (A) (A) (A) (A)
                 (A) (A) (A) (A) (A) (A) (A) (A) (A) (A) (A) (A)
                 (A) (A) (A) (A) (A) (A) (A) (A) (A) (A) (A) (A)
                 (A) (A) (A) (A) (A) (A) (A) (A) (A) (A) (A) (A)
                 (A) (A) (A) (A) (A) (A) (A) (A) (A) (A) (A) (A)
                 (A) (A) (A) (A) (A) (A) (A) (A) (A) (A) (A) (A)
                 (A) (A) (A) (A) (A) (A) (A) (A) (A) (A) (A) (A)
                 (A) (A) (A) (A) (A) (A) (A) (A) (A) (A) (A) (A)
                 (A) (A) (A) (A) (A) (A) (A) (A) (A) (A) (A) (A)
                 (A) (A) (A) (A) (A) (A) (A) (A) (A) (A) (A) (A)
                 (A) (A) (A) (A) (A) (A) (A) (A) (A) (A) (A) (A)
                 (A) (A) (A) (A) (A) (A) (A) (A) (A) (A) (A) (A)
                 (A) (A) (A) (A) (A) (A) (A) (A) (A) (A) (A) (A)
                 (A) (A) (A) (A) (A) (A) (A) (A) (A) (A) (A) (A)
                 (A) (A) (A) (A) (A) (A) (A) (A) (A) (A) (A) (A)
                 (A) (A) (A) (A) (A) (A) (A) (A) (A) (A) (A) (A)
                 (A) (A) (A) (A) (A) (A) (A) (A) (A) (A) (A) (A)
                 (A) (A) (A) (A) (A) (A) (A) (A) (A) (A) (A) (A)
                 (A) (A) (A) (A) (A) (A) (A) (A) (A) (A) (A) (A)
                 (A) (A) (A) (A) (A) (A) (A) (A) (A) (A) (A) (A)
                 (A) (A) (A) (A) (A) (A) (A) (A) (A) (A) (A) (A)
                 (A) (A) (A) (A) (A) (A) (A) (A) (A) (A) (A) (A)
                 (A) (A) (A) (A) (A) (A) (A) (A) (A) (A) (A) (A)
                 (A) (A) (A) (A) (A) (A) (A) (A) (A) (A) (A) (A)
                 (A) (A) (A) (A) (A) (A) (A) (A) (A) (A) (A) (A)
                 (A) (A) (A) (A) (A) (A) (A) (A) (A) (A) (A) (A)
                 (A) (A) (A)
 Beta  Orbitals:
       Occupied  (A) (A) (A) (A) (A) (A) (A) (A) (A) (A) (A) (A)
                 (A) (A) (A) (A) (A) (A) (A) (A) (A) (A) (A) (A)
                 (A) (A) (A) (A) (A) (A) (A) (A) (A) (A) (A) (A)
                 (A) (A) (A) (A) (A) (A) (A) (A) (A) (A) (A) (A)
                 (A) (A) (A) (A) (A) (A) (A) (A) (A) (A) (A) (A)
       Virtual   (A) (A) (A) (A) (A) (A) (A) (A) (A) (A) (A) (A)
                 (A) (A) (A) (A) (A) (A) (A) (A) (A) (A) (A) (A)
                 (A) (A) (A) (A) (A) (A) (A) (A) (A) (A) (A) (A)
                 (A) (A) (A) (A) (A) (A) (A) (A) (A) (A) (A) (A)
                 (A) (A) (A) (A) (A) (A) (A) (A) (A) (A) (A) (A)
                 (A) (A) (A) (A) (A) (A) (A) (A) (A) (A) (A) (A)
                 (A) (A) (A) (A) (A) (A) (A) (A) (A) (A) (A) (A)
                 (A) (A) (A) (A) (A) (A) (A) (A) (A) (A) (A) (A)
                 (A) (A) (A) (A) (A) (A) (A) (A) (A) (A) (A) (A)
                 (A) (A) (A) (A) (A) (A) (A) (A) (A) (A) (A) (A)
                 (A) (A) (A) (A) (A) (A) (A) (A) (A) (A) (A) (A)
                 (A) (A) (A) (A) (A) (A) (A) (A) (A) (A) (A) (A)
                 (A) (A) (A) (A) (A) (A) (A) (A) (A) (A) (A) (A)
                 (A) (A) (A) (A) (A) (A) (A) (A) (A) (A) (A) (A)
                 (A) (A) (A) (A) (A) (A) (A) (A) (A) (A) (A) (A)
                 (A) (A) (A) (A) (A) (A) (A) (A) (A) (A) (A) (A)
                 (A) (A) (A) (A) (A) (A) (A) (A) (A) (A) (A) (A)
                 (A) (A) (A) (A) (A) (A) (A) (A) (A) (A) (A) (A)
                 (A) (A) (A) (A) (A) (A) (A) (A) (A) (A) (A) (A)
                 (A) (A) (A) (A) (A) (A) (A) (A) (A) (A) (A) (A)
                 (A) (A) (A) (A) (A) (A) (A) (A) (A) (A) (A) (A)
                 (A) (A) (A) (A) (A) (A) (A) (A) (A) (A) (A) (A)
                 (A) (A) (A) (A) (A) (A) (A) (A) (A) (A) (A) (A)
                 (A) (A) (A) (A) (A) (A) (A) (A) (A) (A) (A) (A)
                 (A) (A) (A) (A) (A) (A) (A) (A) (A) (A) (A) (A)
                 (A) (A) (A) (A) (A) (A) (A) (A) (A) (A) (A) (A)
                 (A) (A) (A) (A) (A) (A) (A) (A) (A) (A) (A) (A)
                 (A) (A) (A) (A) (A) (A) (A) (A) (A) (A) (A) (A)
                 (A) (A) (A) (A) (A) (A) (A) (A) (A) (A) (A) (A)
                 (A) (A) (A) (A) (A) (A) (A) (A) (A) (A) (A) (A)
                 (A) (A) (A) (A) (A) (A) (A) (A) (A) (A) (A) (A)
                 (A) (A) (A) (A) (A) (A) (A) (A) (A) (A) (A) (A)
                 (A) (A) (A) (A) (A) (A) (A) (A) (A) (A) (A) (A)
                 (A) (A) (A) (A) (A) (A) (A) (A) (A) (A) (A) (A)
                 (A) (A) (A) (A) (A) (A) (A) (A) (A) (A) (A) (A)
                 (A) (A) (A) (A) (A) (A) (A) (A) (A) (A) (A) (A)
                 (A) (A) (A) (A) (A) (A) (A) (A) (A) (A) (A) (A)
                 (A) (A) (A) (A) (A) (A) (A) (A) (A) (A) (A) (A)
                 (A) (A) (A) (A) (A) (A) (A) (A) (A) (A) (A) (A)
                 (A) (A) (A) (A) (A) (A) (A) (A) (A) (A) (A) (A)
                 (A) (A) (A) (A) (A) (A) (A) (A) (A) (A) (A) (A)
                 (A) (A) (A) (A) (A) (A) (A) (A) (A) (A) (A) (A)
                 (A) (A) (A) (A) (A) (A) (A) (A) (A) (A) (A) (A)
                 (A) (A) (A) (A) (A) (A) (A) (A) (A) (A) (A) (A)
                 (A) (A) (A) (A) (A) (A) (A) (A) (A) (A) (A) (A)
                 (A) (A) (A) (A) (A) (A) (A) (A) (A) (A) (A) (A)
                 (A) (A) (A) (A) (A) (A) (A) (A) (A) (A) (A) (A)
                 (A) (A) (A) (A)
 The electronic state is 2-A.
 Alpha  occ. eigenvalues --  -19.62780 -14.83657 -10.59272 -10.58607 -10.55669
 Alpha  occ. eigenvalues --  -10.55027 -10.54955 -10.54835 -10.54764 -10.54365
 Alpha  occ. eigenvalues --  -10.54359 -10.53892 -10.52541 -10.52516 -10.52376
 Alpha  occ. eigenvalues --  -10.52006  -1.19514  -0.97486  -0.95173  -0.91904
 Alpha  occ. eigenvalues --   -0.86144  -0.84379  -0.83832  -0.78847  -0.78073
 Alpha  occ. eigenvalues --   -0.77094  -0.75067  -0.69499  -0.67938  -0.64898
 Alpha  occ. eigenvalues --   -0.62505  -0.59515  -0.57228  -0.55634  -0.55016
 Alpha  occ. eigenvalues --   -0.53194  -0.52055  -0.50957  -0.50552  -0.49838
 Alpha  occ. eigenvalues --   -0.49176  -0.48203  -0.46532  -0.46205  -0.45680
 Alpha  occ. eigenvalues --   -0.44816  -0.44329  -0.44051  -0.43662  -0.43267
 Alpha  occ. eigenvalues --   -0.41771  -0.40532  -0.40070  -0.39705  -0.39140
 Alpha  occ. eigenvalues --   -0.38742  -0.38450  -0.34044  -0.31093  -0.30436
 Alpha  occ. eigenvalues --   -0.26632
 Alpha virt. eigenvalues --    0.01190   0.01498   0.05214   0.07570   0.08292
 Alpha virt. eigenvalues --    0.08850   0.09887   0.10745   0.11271   0.11683
 Alpha virt. eigenvalues --    0.12288   0.12585   0.13187   0.13482   0.13985
 Alpha virt. eigenvalues --    0.14636   0.15210   0.15560   0.16271   0.16484
 Alpha virt. eigenvalues --    0.17112   0.17556   0.18209   0.18620   0.18926
 Alpha virt. eigenvalues --    0.19117   0.19487   0.19837   0.20136   0.20901
 Alpha virt. eigenvalues --    0.21121   0.22617   0.23005   0.24110   0.24524
 Alpha virt. eigenvalues --    0.24885   0.25401   0.26027   0.26294   0.26476
 Alpha virt. eigenvalues --    0.27787   0.28193   0.28944   0.29118   0.29647
 Alpha virt. eigenvalues --    0.30027   0.30827   0.31860   0.32435   0.33059
 Alpha virt. eigenvalues --    0.33236   0.34330   0.35031   0.35812   0.36101
 Alpha virt. eigenvalues --    0.37170   0.38012   0.38463   0.38968   0.39802
[...]
 0.00040473,-0.00116242,0.00011482,-0.00064692,0.00001183,0.00315365,-0
 .00353081,-0.00003632,-0.00008487,0.00002156,0.08341179,-0.00014886,-0
 .00018842,-0.00017437,-0.00057371,0.00028949,-0.00023251,0.00020749,0.
 00018080,-0.00028536,-0.00010300,-0.00002539,0.00006028,-0.00155064,-0
 .00338431,0.00119615,-0.00027858,-0.00000445,-0.00007991,-0.00003286,-
 0.00004389,0.00014615,0.00064368,0.00014362,0.00015789,0.00008850,0.00
 001610,-0.00004371,0.00002582,0.00001790,0.00003207,0.00012710,-0.0000
 1515,0.00001903,-0.00032053,-0.00015356,-0.00006292,0.00008158,-0.0000
 1788,0.00003151,0.00005069,0.00001673,0.00002415,0.00000508,0.00000382
 ,-0.00001453,-0.00003146,-0.00001907,-0.00001029,0.00009794,0.00019632
 ,0.00002115,-0.00007252,-0.00017242,0.00007196,0.00000330,-0.00003183,
 -0.00001436,0.00018127,0.00020772,0.00013714,0.00013021,-0.00020145,-0
 .00012031,-0.00008680,0.00002295,-0.00010531,-0.00016569,0.00008909,0.
 00011715,0.00001960,0.00000971,-0.00001065,-0.00002644,0.00000339,-0.0
 0001378,0.00005432,-0.00003002,-0.00000723,-0.00172163,0.00518078,0.00
 614633,0.02986498,-0.05807086,-0.06338686,0.00380187,-0.00002765,-0.01
 386006,0.00535486,0.00467512,-0.00003234,-0.00009417,-0.00074244,0.000
 34880,0.00334107,0.00514873,0.00080247,-0.00002446,-0.00006316,0.00002
 925,-0.03650127,0.05063943,0.00005029,0.00012449,0.00033468,-0.0002834
 5,-0.00015082,0.00025512,0.00017216,-0.00005102,-0.00023383,-0.0000050
 3,-0.00006290,0.00006169,0.00239364,-0.00046998,0.00008883,-0.00021503
 ,0.00013970,-0.00007892,-0.00002398,0.00000046,0.00010220,-0.00028525,
 0.00010806,0.00017466,0.00000891,0.00002627,-0.00008360,0.00003197,0.0
 0002808,0.00003681,0.00002485,-0.00001795,0.00002580,-0.00008117,-0.00
 025895,0.00013216,0.00012355,0.00001881,0.00004696,0.00003494,-0.00000
 013,0.00002622,-0.00001434,0.00000689,-0.00000783,-0.00000952,-0.00000
 750,-0.00000705,0.00000517,-0.00012256,-0.00015256,0.00003660,0.000122
 25,-0.00002484,-0.00003153,-0.00001429,-0.00000151,-0.00114497,0.00056
 969,0.00052440,-0.00012096,0.00018158,0.00014071,0.00004515,-0.0000188
 7,0.00013146,0.00002665,0.00000309,-0.00017572,-0.00002846,0.00001822,
 0.00002068,0.00002047,-0.00000528,0.00000094,-0.00004217,0.00000815,0.
 00000612,0.01005221,-0.00705518,-0.01954362,0.08028034,-0.06288807,-0.
 29116410,-0.00069800,0.00000547,0.00033510,0.00024127,-0.00057237,0.00
 213630,-0.00077621,0.00050780,0.00032831,-0.00410630,0.00128518,-0.002
 54539,0.00005448,-0.00013009,0.00010905,-0.08692922,0.06889744,0.30954
 589,-0.00005187,-0.00006511,-0.00014320,-0.00018304,0.00010425,0.00011
 802,0.00007228,0.00012083,-0.00010980,-0.00003225,-0.00005209,0.000032
 21,-0.00001731,0.00005172,-0.00108398,-0.00004292,-0.00004438,0.000019
 30,-0.00000589,-0.00004044,0.00002846,-0.00027132,0.00001010,0.0001134
 4,0.00000308,0.00003904,-0.00002550,0.00000992,0.00000901,0.00000805,0
 .00001942,-0.00000212,-0.00000287,-0.00000120,0.00004182,-0.00003100,-
 0.00002744,-0.00001659,0.00000320,0.00001199,0.00000918,0.00000174,0.0
 0000676,0.00000330,-0.00000318,-0.00001938,-0.00001217,0.00000024,0.00
 000944,0.00001045,-0.00004224,0.00004687,0.00010483,-0.00003175,-0.000
 02260,-0.00002569,-0.00000768,0.00000127,-0.00002248,0.00002097,-0.000
 00999,0.00000326,0.00001706,0.00000031,0.00002545,0.00001082,-0.000008
 73,-0.00001045,0.00000078,-0.00000162,-0.00000097,0.00001048,0.0000049
 2,-0.00001355,-0.00000395,-0.00003615,0.00003460,0.00000329,-0.0025615
 6,0.00524849,0.00152312,-0.01030102,0.00509484,-0.02383555,-0.14200832
 ,0.04319824,-0.12695468,0.00961361,-0.00236216,0.00942615,0.00183227,0
 .00315390,0.00225765,-0.00069908,-0.00006670,0.00099835,-0.00000151,-0
 .00000620,0.00001356,-0.00003419,-0.00200965,0.00049256,0.14493038,-0.
 00003753,0.00004980,-0.00001478,0.00035095,-0.00009645,-0.00002133,-0.
 00003967,-0.00002516,0.00002262,-0.00001593,-0.00000414,-0.00000535,0.
 00004683,0.00000404,0.00055862,0.00001411,-0.00001009,0.00000582,0.000
 00399,0.00000272,-0.00000633,0.00007713,0.00013589,-0.00004298,0.00001
 033,0.00001283,-0.00002935,0.00001319,-0.00000511,0.00000823,0.0000091
 3,-0.00000475,0.00000632,-0.00002756,0.00002259,0.00001323,-0.00001413
 ,0.00000387,-0.00000509,-0.00000527,-0.00000243,0.00000009,0.00000233,
 -0.00000350,-0.00000076,0.00000220,0.00000364,-0.00000058,0.00003840,-
 0.00002405,-0.00000139,-0.00002704,-0.00005482,0.00003554,-0.00000873,
 0.00000108,0.00000286,-0.00001456,-0.00000633,-0.00000155,0.00001840,-
 0.00000102,-0.00001193,-0.00001046,-0.00001483,-0.00000694,-0.00000504
 ,0.00002397,0.00002439,-0.00000290,0.00000817,-0.00000346,-0.00001102,
 0.00000999,-0.00000105,0.00002177,-0.00001349,0.00000172,0.00522882,0.
 00461775,-0.00122281,0.00719936,0.00066859,0.01255901,0.04335615,-0.05
 635796,0.04830731,-0.00467512,0.00532731,-0.00652736,0.00317989,0.0057
 9333,-0.00214192,-0.00005502,-0.00098637,-0.00047387,-0.00002167,-0.00
 000454,0.00002526,-0.00207663,-0.00294791,0.00013210,-0.04993874,0.047
 69606,-0.00004478,-0.00000028,-0.00000895,-0.00000788,0.00000153,-0.00
 000351,0.00002285,0.00001635,-0.00000970,-0.00000498,-0.00000771,0.000
 00389,0.00028145,-0.00008204,0.00016992,0.00000244,-0.00000897,0.00000
 571,0.00000215,-0.00000565,0.00000064,-0.00000461,-0.00005095,-0.00001
 374,0.00000733,0.00002169,-0.00001824,0.00001070,0.00000091,0.00000301
 ,0.00000376,-0.00000047,0.00000097,-0.00000108,0.00001887,-0.00000685,
 -0.00001117,-0.00000453,0.00000002,0.00000185,0.00000175,-0.00000141,0
 .00000056,0.00000191,0.00000046,-0.00000350,-0.00000358,0.00000147,-0.
 00000878,0.00001471,0.00000214,0.00001016,0.00001368,-0.00000622,-0.00
 001300,-0.00000678,0.00000072,-0.00000714,0.00001403,-0.00000868,-0.00
 000227,-0.00000597,0.00000431,-0.00000331,0.00000843,-0.00000376,-0.00
 001210,-0.00001305,-0.00001217,-0.00000077,-0.00000239,0.00000270,0.00
 000160,-0.00000293,-0.00000073,-0.00000659,0.00000412,-0.00000099,0.00
 101871,-0.00103107,0.00171862,0.00360819,-0.00161534,0.00659853,-0.126
 89334,0.04836374,-0.24302730,-0.01803525,0.00757685,-0.01749196,0.0028
 1555,-0.00243354,-0.00400848,0.00097480,-0.00043407,-0.00004466,0.0000
 0450,0.00000560,-0.00000373,-0.00024995,0.00050615,0.00063241,0.137042
 39,-0.05157869,0.25552173,-0.00015514,-0.00000259,-0.00007060,0.000017
 82,0.00005611,-0.00000863,0.00006974,0.00004815,-0.00002644,-0.0000176
 8,-0.00004710,0.00000583,-0.00022319,-0.00047668,0.00007999,0.00000239
 ,-0.00002119,0.00000165,0.00000512,-0.00001450,0.00000228,0.00005940,-
 0.00000611,-0.00000784,0.00000246,0.00004796,0.00000027,0.00000556,0.0
 0001618,-0.00000073,0.00000650,-0.00000109,-0.00000452,0.00001113,0.00
 002065,-0.00000806,-0.00001237,-0.00000841,0.00000468,0.00000489,0.000
 00687,-0.00000240,0.00000465,0.00000186,-0.00000059,-0.00000856,-0.000
 00665,0.00000405,0.00000038,0.00001371,0.00000280,0.00000497,-0.000017
 38,0.00002939,-0.00002285,-0.00001610,0.00000264,-0.00000038,0.0000125
 7,0.00003344,0.00000817,-0.00000935,-0.00000096,-0.00000625,0.00001040
 ,-0.00000838,-0.00000606,-0.00001691,0.00000508,-0.00000621,0.00000363
 ,0.00000361,0.00000155,-0.00000645,-0.00000287,0.00000579,0.00000607,-
 0.00000292,0.00033887,-0.00063483,-0.00034345,0.00270987,0.00276319,0.
 00179965,-0.00483677,0.00405684,-0.00109063,-0.27450440,0.12510509,0.0
 2791642,-0.01080138,0.00765932,0.00456176,0.00115539,0.00284830,-0.003
 62698,0.00000690,-0.00003513,0.00002212,-0.00033178,0.00023744,-0.0001
 0578,-0.00033233,-0.00193126,0.00043125,0.28757691,-0.00001687,0.00001
 358,-0.00021199,-0.00001415,0.00002855,0.00010877,0.00003877,0.0000126
 5,-0.00001222,-0.00001972,-0.00002101,0.00000053,-0.00042250,-0.000861
 85,0.00004521,-0.00001997,0.00000050,-0.00001640,0.00000171,-0.0000034
 2,0.00000505,0.00009143,0.00003239,0.00007126,0.00000143,0.00001121,0.
 00001299,-0.00001024,-0.00000117,-0.00000253,0.00000684,-0.00000371,0.
 00000048,0.00001137,-0.00000327,0.00000781,0.00000625,0.00000223,0.000
 00691,0.00000188,0.00000237,0.00000118,0.00000311,-0.00000237,-0.00000
 173,-0.00000246,0.00000048,-0.00000061,0.00001432,-0.00000208,-0.00001
 660,-0.00000779,-0.00004280,0.00002849,0.00000099,-0.00000475,-0.00000
 983,0.00000377,0.00001824,0.00005242,0.00000110,-0.00000545,-0.0000003
 7,0.00000300,-0.00001392,-0.00000177,0.00001228,0.00002232,0.00000597,
 -0.00000221,0.00000645,-0.00000177,-0.00000195,0.00000094,-0.00000104,
 0.00001563,-0.00001346,0.00000130,-0.00069242,-0.00050095,0.00009340,0
 .00266795,0.00616582,-0.00201172,0.00638478,-0.00010252,0.00051925,0.1
 2505289,-0.10408216,-0.01676514,0.00531467,0.00026483,-0.00204668,0.00
 294101,0.00581783,0.00099315,0.00000418,-0.00002764,0.00000678,0.00032
 786,-0.00000813,0.00005678,-0.00198828,-0.00306164,0.00021865,-0.13808
 186,0.09937931,-0.00008604,0.00002092,0.00011822,0.00000028,0.00002161
 ,-0.00003125,0.00003831,0.00000261,-0.00003601,-0.00000799,-0.00001659
 ,0.00001874,0.00006047,0.00004804,0.00005371,-0.00003083,0.00000678,-0
 .00001088,-0.00000144,-0.00000232,0.00001542,-0.00000817,0.00000218,-0
 .00000633,-0.00000588,-0.00000561,-0.00001676,0.00001073,0.00001284,0.
 00000512,0.00000034,0.00000219,0.00000203,-0.00000639,-0.00002753,0.00
 000734,0.00001515,0.00000151,0.00000716,0.00000615,0.00000145,0.000003
 27,-0.00000110,0.00000155,-0.00000132,-0.00000214,-0.00000216,-0.00000
 006,-0.00000937,-0.00001943,-0.00000053,0.00000327,0.00000095,0.000010
 72,-0.00000353,-0.00000387,0.00000394,-0.00009612,0.00004691,0.0000457
 9,-0.00000961,0.00002127,0.00001717,0.00000877,-0.00000267,0.00001294,
 0.00000665,0.00000199,-0.00001988,-0.00000841,0.00000500,0.00000402,0.
 00000499,-0.00000137,0.00000012,0.00000026,0.00000141,0.00000050,-0.00
 016991,0.00006333,-0.00158274,0.00121273,-0.00169507,-0.00495227,0.026
 37848,-0.01382111,0.00181475,0.02786075,-0.01670172,-0.06343148,-0.022
 86623,0.01227877,0.00781041,-0.00312495,0.00067970,-0.00373912,0.00001
 181,-0.00004330,0.00002074,0.00131392,-0.00067211,-0.00011912,-0.00035
 345,0.00060706,0.00096323,-0.02985176,0.01859251,0.06189280,-0.0000362
 2,-0.00008508,-0.00012382,0.00005663,-0.00001053,0.00001154,0.00002526
 ,0.00012689,-0.00004595,0.00000855,-0.00003950,0.00002706,0.00022445,0
 .00012816,0.00145933,0.00000282,-0.00005085,0.00001999,-0.00000107,-0.
 00003456,0.00000209,-0.00000312,-0.00014979,0.00008912,0.00001248,0.00
 003101,0.00002753,-0.00004978,0.00001160,-0.00002019,0.00002223,-0.000
 00926,-0.00001803,-0.00001754,0.00002133,-0.00001343,-0.00001796,-0.00
 001606,0.00000016,-0.00000257,0.00000823,-0.00000298,0.00001151,-0.000
 00319,-0.00000314,-0.00001214,-0.00000507,0.00000288,-0.00000466,0.000
 00670,-0.00002278,0.00000652,0.00005826,-0.00002897,-0.00000090,-0.000
 01353,-0.00001470,-0.00039710,0.00016405,0.00006435,-0.00000951,-0.000
 00847,0.00000142,0.00000144,0.00002089,0.00000677,-0.00001346,-0.00001
 070,-0.00000707,0.00001206,-0.00000578,-0.00001221,-0.00000608,-0.0000
 0601,-0.00000112,-0.00002156,0.00002085,-0.00000805,-0.00290806,0.0055
 8016,-0.00023520,-0.00119560,0.00017713,-0.00072031,0.00006212,0.00344
 638,-0.00352677,0.00979998,-0.00468634,-0.01698715,-0.08427026,0.03049
 230,0.08222953,-0.00403655,0.00633768,0.02640797,0.00001776,0.00002104
 ,-0.00002172,-0.00017039,-0.00050072,0.00012236,0.00031782,-0.00018846
 ,-0.00090098,-0.00020804,-0.00186152,0.00074281,0.08280999,-0.00003172
 ,0.00000956,0.00010245,-0.00020244,-0.00000604,-0.00011511,-0.00000804
 ,0.00001397,0.00001350,-0.00000652,-0.00001200,-0.00002021,0.00004397,
 0.00003355,-0.00066359,0.00001903,-0.00003375,-0.00000448,0.00000369,-
 0.00000758,-0.00000711,0.00007545,-0.00000621,-0.00000478,0.00002659,0
 .00000188,0.00002947,-0.00002256,0.00001181,-0.00001145,0.00000521,0.0
 0000630,0.00000019,-0.00001108,-0.00000364,0.00001027,-0.00000754,0.00
 000503,0.00000156,-0.00000218,0.00000274,0.00000052,0.00000614,-0.0000
 0407,-0.00000181,-0.00000051,0.00000064,0.00000097,0.00002848,-0.00002
 966,0.00002552,-0.00003781,-0.00004142,0.00001605,0.00000812,0.0000023
 3,-0.00000011,0.00016746,-0.00020688,-0.00005023,-0.00001572,0.0000070
 8,0.00000878,0.00000469,-0.00002227,-0.00000164,-0.00000128,0.00001319
 ,-0.00003013,-0.00000679,0.00001071,0.00000006,-0.00000406,0.00000880,
 -0.00000164,0.00001731,-0.00002014,0.00000180,0.00546307,0.00507568,-0
 .00028787,0.00014023,-0.00077901,0.00045100,0.00344104,0.00560929,0.00
 100781,-0.00236750,0.00535455,0.00705765,0.03037322,-0.06014651,-0.064
 51878,0.00419244,0.00063841,-0.01417489,0.00001711,-0.00002306,-0.0000
 0214,-0.00048945,-0.00089233,0.00003086,-0.00007499,0.00015920,0.00037
 746,-0.00192808,-0.00292590,0.00000968,-0.03669221,0.05142150,0.000051
 00,0.00003193,0.00002639,0.00005772,-0.00003402,-0.00000713,-0.0000393
 1,-0.00007260,0.00002710,-0.00000600,0.00003974,-0.00000687,-0.0002796
 6,0.00008078,-0.00012947,-0.00001043,0.00002362,-0.00000502,-0.0000018
 8,0.00002064,0.00000123,0.00005876,0.00004139,-0.00003226,-0.00000395,
 -0.00002738,-0.00003179,0.00002696,-0.00001524,0.00001464,-0.00000529,
 0.00000215,0.00000871,0.00000005,-0.00001078,0.00000655,0.00000825,0.0
 0000706,-0.00000353,-0.00000110,-0.00000610,0.00000301,-0.00000640,0.0
 0000015,0.00000047,0.00000794,0.00000544,-0.00000340,0.00000965,-0.000
 00715,0.00000540,-0.00001493,-0.00003430,0.00001130,0.00000830,0.00001
 093,0.00000366,0.00005443,-0.00002627,0.00000857,-0.00000629,0.0000028
 2,0.00000097,0.00000584,-0.00001713,-0.00000074,0.00000920,0.00001855,
 -0.00001147,-0.00000069,0.00000100,-0.00000198,-0.00000067,0.00000559,
 0.00000196,0.00001374,-0.00001356,-0.00000015,0.00004015,-0.00051186,0
 .00197622,-0.00067672,0.00044010,0.00048218,-0.00398211,0.00126570,-0.
 00238457,0.01042083,-0.00717552,-0.01770072,0.08224144,-0.06454607,-0.
 29823065,-0.00066012,0.00007388,0.00070393,-0.00000247,0.00001254,0.00
 000291,0.00010868,0.00003545,-0.00005259,0.00053571,-0.00036221,-0.000
 96623,-0.00005394,0.00042246,0.00086197,-0.08833897,0.07012688,0.31480
 687,-0.00233178,0.00049251,-0.00143652,0.00052302,-0.00017909,0.001621
 42,-0.00015829,-0.00036371,0.00007250,0.00009637,0.00012784,-0.0000216
 4,-0.00076090,-0.00095442,0.00032897,0.00007234,0.00009341,0.00000203,
 -0.00001301,0.00007959,-0.00003293,0.00007676,0.00010236,0.00006944,0.
 00004020,0.00007061,-0.00004841,-0.00001246,-0.00010896,-0.00003188,-0
 .00000224,-0.00000801,0.00000551,-0.00000976,0.00000715,-0.00001453,-0
 .00000996,0.00001947,-0.00004283,-0.00003940,-0.00002335,-0.00001831,-
 0.00001409,-0.00000928,-0.00000142,0.00003637,0.00002794,-0.00001630,0
 .00010800,-0.00005084,-0.00002879,-0.00001385,-0.00007178,0.00010655,-
 0.00001214,0.00005821,-0.00003649,-0.00000176,-0.00012887,-0.00012992,
 -0.00003631,-0.00001254,-0.00000489,-0.00003052,-0.00003392,-0.0000199
 5,-0.00007582,-0.00000992,-0.00005400,-0.00002674,0.00001284,-0.000016
 93,-0.00006910,0.00001758,-0.00000457,0.00002569,-0.00004293,-0.000003
 04,0.01034960,-0.00259111,0.00804027,0.00107620,0.00295297,0.00266814,
 -0.00056534,-0.00004620,0.00085015,-0.00229246,0.00513835,0.00137217,-
 0.00975279,0.00501929,-0.02223236,-0.14450545,0.04140169,-0.12855279,0
 .00022641,0.00018717,0.00007222,0.00041239,-0.00007383,0.00068381,-0.0
 0021064,-0.00046626,-0.00002877,-0.00052509,0.00023469,-0.00103256,-0.
 00000905,-0.00212277,0.00043226,0.14843563,-0.00002120,-0.00027345,-0.
 00051661,0.00031310,-0.00016422,0.00007868,0.00003186,0.00020965,0.000
 01958,-0.00001247,0.00008531,0.00007485,-0.00159809,-0.00232952,0.0004
 5054,-0.00000665,-0.00010295,0.00001052,0.00000036,-0.00007125,0.00000
 663,0.00035214,0.00013190,-0.00051963,0.00014665,0.00001677,0.00014076
 ,-0.00024446,-0.00010652,-0.00007393,0.00002347,-0.00001645,-0.0000426
 2,-0.00002586,0.00000959,0.00000673,-0.00001201,-0.00001096,0.00002507
 ,-0.00000606,0.00002382,-0.00000042,0.00003131,-0.00001183,-0.00001186
 ,-0.00002145,-0.00000530,0.00000819,-0.00002767,-0.00003794,0.00009498
 ,0.00006672,-0.00016767,0.00037258,0.00011149,-0.00003177,-0.00012294,
 -0.00018035,-0.00000504,0.00010043,0.00000698,0.00004519,0.00006351,0.
 00000705,-0.00001848,-0.00001180,-0.00003096,0.00004245,-0.00003734,-0
 .00010218,0.00006430,0.00005845,0.00000329,0.00000221,-0.00002627,0.00
 004392,-0.00001880,-0.00001093,-0.00470550,0.00610410,-0.00603774,0.00
 301857,0.00528200,-0.00190814,-0.00009369,-0.00083026,-0.00044335,0.00
 538246,0.00492299,-0.00134896,0.00787063,0.00119449,0.01221292,0.04062
 104,-0.05729946,0.04531573,0.00034403,-0.00079538,-0.00005236,-0.00010
 230,0.00019859,-0.00044540,-0.00051055,-0.00091624,0.00012158,0.000347
 34,-0.00009149,0.00058459,-0.00227504,-0.00322576,0.00019137,-0.048745
 92,0.04819737,-0.00145320,0.00023985,0.00063702,0.00062114,0.00036646,
 -0.00068651,0.00037009,0.00003190,-0.00029786,-0.00010267,-0.00005344,
 0.00006905,-0.00119698,0.00073771,-0.00007129,-0.00007462,-0.00002615,
 -0.00003311,0.00001236,-0.00005229,0.00007958,0.00016329,-0.00008295,-
 0.00023580,-0.00001237,-0.00000070,-0.00009202,0.00013212,0.00010991,0
 .00003752,0.00000996,0.00001885,0.00000359,-0.00000569,-0.00002298,0.0
 0001656,0.00001058,-0.00000756,0.00002779,0.00002911,0.00001435,0.0000
 1114,0.00000549,0.00001554,-0.00000725,-0.00003078,-0.00002665,0.00000
 525,-0.00010392,-0.00004080,0.00001639,0.00002569,-0.00008352,0.000171
 02,-0.00002212,-0.00005603,0.00003866,-0.00002578,0.00003861,0.0000992
 4,0.00000983,0.00005290,0.00007206,0.00003594,0.00001273,0.00002092,0.
 00002204,0.00001158,-0.00007306,-0.00008497,0.00003821,0.00002234,0.00
 001972,-0.00002881,0.00000272,0.00003064,0.00002198,-0.00000093,-0.017
 21573,0.00666833,-0.01863970,0.00262404,-0.00239331,-0.00384655,0.0009
 3984,-0.00039919,-0.00002505,0.00111176,-0.00127497,0.00143022,0.00409
 383,-0.00184356,0.00783297,-0.12681545,0.04582682,-0.24009528,0.000128
 97,-0.00045359,0.00021542,-0.00083706,0.00034608,-0.00100586,-0.000048
 74,0.00014955,0.00000682,0.00031061,-0.00015096,0.00025761,-0.00016135
 ,0.00062349,0.00061452,0.13748441,-0.04832739,0.25342186\\0.00000478,0
 .00000249,0.00002085,-0.00000225,0.00000970,-0.00001857,-0.00000410,-0
 .00001180,0.00000340,0.00000614,0.00000082,-0.00000063,0.00000450,-0.0
 0000770,-0.00000008,0.00000823,0.00000992,-0.00000310,-0.00000506,0.00
 000132,-0.00000401,0.00000266,0.00000025,0.00000431,-0.00000072,-0.000
 00133,-0.00000175,-0.00000106,-0.00000003,-0.00000002,0.00000221,-0.00
 000254,0.00000137,0.00000342,0.00000348,0.00000201,0.00000202,-0.00000
 036,0.00000047,-0.00000291,0.00000023,0.00000335,-0.00000108,-0.000001
 23,0.00000044,0.00000153,0.00000266,-0.00000070,-0.00000060,-0.0000041
 0,-0.00000024,-0.00000234,0.00000130,-0.00000068,0.00000097,0.00000359
 ,-0.00000090,-0.00000469,-0.00000528,0.00000602,0.00000023,-0.00000084
 ,-0.00000179,-0.00000164,-0.00000225,0.00000062,-0.00000057,0.00000086
 ,0.00000014,0.00000061,-0.00000055,-0.00000059,-0.00000075,-0.00000014
 ,0.00000199,-0.00000223,-0.00000158,0.00000267,-0.00000023,0.00000290,
 -0.00000333,-0.00000168,-0.00000199,0.00000108,-0.00000110,0.00000180,
 -0.00000272,-0.00000107,0.00000173,-0.00000460,0.00000202,-0.00000126,
 0.00000121,-0.00000355,-0.00000024,0.00000150,-0.00000084,-0.00000108,
 0.00000112,0.00000022,-0.00000126,-0.00000147,0.00000071,-0.00000015,-
 0.00000206,-0.00000066,0.00000033,-0.00000267,-0.00000054,0.00000146,-
 0.00000204,-0.00000059,0.00000089,-0.00000059\\\@
 The archive entry for this job was punched.


 O WAD SOME POWER THE GIFTIE GIE US       
 TO SEE OURSELS AS OTHERS SEE US.....     
 IT WOULD FRAE MONIE A BLUNDER FREE US,   
                     AND FOOLISH NOTION...
 WHAT AIRS IN DRESS AND GAIT WAD LEA'E US,
                     AND EV'N DEVOTION....
                                          
              (ROBERT BURNS 'TO A LOUSE') 
 Job cpu time:       2 days  6 hours 19 minutes 24.1 seconds.
 Elapsed time:       0 days  2 hours 42 minutes 59.2 seconds.
 File lengths (MBytes):  RWF=   2284 Int=      0 D2E=      0 Chk=     45 Scr=      1
 Normal termination of Gaussian 16 at Tue Jan  7 21:23:27 2025.
