 Entering Gaussian System, Link 0=g16
 Input=gjfs/data_set_12-catalyst-31.gjf
 Output=gjfs/data_set_12-catalyst-31.log
 Initial command:
 /usr/local/intel/g16/l1.exe "/scr/Gau-1100148.inp" -scrdir="/scr/"
 Entering Link 1 = /usr/local/intel/g16/l1.exe PID=   1100152.
  
 Copyright (c) 1988-2019, Gaussian, Inc.  All Rights Reserved.
  
 This is part of the Gaussian(R) 16 program.  It is based on
 the Gaussian(R) 09 system (copyright 2009, Gaussian, Inc.),
 the Gaussian(R) 03 system (copyright 2003, Gaussian, Inc.),
 the Gaussian(R) 98 system (copyright 1998, Gaussian, Inc.),
 the Gaussian(R) 94 system (copyright 1995, Gaussian, Inc.),
 the Gaussian 92(TM) system (copyright 1992, Gaussian, Inc.),
 the Gaussian 90(TM) system (copyright 1990, Gaussian, Inc.),
 the Gaussian 88(TM) system (copyright 1988, Gaussian, Inc.),
 the Gaussian 86(TM) system (copyright 1986, Carnegie Mellon
 University), and the Gaussian 82(TM) system (copyright 1983,
 Carnegie Mellon University). Gaussian is a federally registered
 trademark of Gaussian, Inc.
  
 This software contains proprietary and confidential information,
 including trade secrets, belonging to Gaussian, Inc.
  
 This software is provided under written license and may be
 used, copied, transmitted, or stored only in accord with that
 written license.
  
 The following legend is applicable only to US Government
 contracts under FAR:
  
                    RESTRICTED RIGHTS LEGEND
  
 Use, reproduction and disclosure by the US Government is
 subject to restrictions as set forth in subparagraphs (a)
 and (c) of the Commercial Computer Software - Restricted
 Rights clause in FAR 52.227-19.
  
 Gaussian, Inc.
 340 Quinnipiac St., Bldg. 40, Wallingford CT 06492
  
  
 ---------------------------------------------------------------
 Warning -- This program may not be used in any manner that
 competes with the business of Gaussian, Inc. or will provide
 assistance to any competitor of Gaussian, Inc.  The licensee
 of this program is prohibited from giving any competitor of
 Gaussian, Inc. access to this program.  By using this program,
 the user acknowledges that Gaussian, Inc. is engaged in the
 business of creating and licensing software in the field of
 computational chemistry and represents and warrants to the
 licensee that it is not a competitor of Gaussian, Inc. and that
 it will not use this program in any manner prohibited above.
 ---------------------------------------------------------------
  

 Cite this work as:
 Gaussian 16, Revision C.01,
 M. J. Frisch, G. W. Trucks, H. B. Schlegel, G. E. Scuseria, 
 M. A. Robb, J. R. Cheeseman, G. Scalmani, V. Barone, 
 G. A. Petersson, H. Nakatsuji, X. Li, M. Caricato, A. V. Marenich, 
 J. Bloino, B. G. Janesko, R. Gomperts, B. Mennucci, H. P. Hratchian, 
 J. V. Ortiz, A. F. Izmaylov, J. L. Sonnenberg, D. Williams-Young, 
 F. Ding, F. Lipparini, F. Egidi, J. Goings, B. Peng, A. Petrone, 
 T. Henderson, D. Ranasinghe, V. G. Zakrzewski, J. Gao, N. Rega, 
 G. Zheng, W. Liang, M. Hada, M. Ehara, K. Toyota, R. Fukuda, 
 J. Hasegawa, M. Ishida, T. Nakajima, Y. Honda, O. Kitao, H. Nakai, 
 T. Vreven, K. Throssell, J. A. Montgomery, Jr., J. E. Peralta, 
 F. Ogliaro, M. J. Bearpark, J. J. Heyd, E. N. Brothers, K. N. Kudin, 
 V. N. Staroverov, T. A. Keith, R. Kobayashi, J. Normand, 
 K. Raghavachari, A. P. Rendell, J. C. Burant, S. S. Iyengar, 
 J. Tomasi, M. Cossi, J. M. Millam, M. Klene, C. Adamo, R. Cammi, 
 J. W. Ochterski, R. L. Martin, K. Morokuma, O. Farkas, 
 J. B. Foresman, and D. J. Fox, Gaussian, Inc., Wallingford CT, 2019.
 
 ******************************************
 Gaussian 16:  ES64L-G16RevC.01  3-Jul-2019
                 7-Jan-2025 
 ******************************************
 %nprocshared=20
 Will use up to   20 processors via shared memory.
 %mem=30GB
 %chk=outputs/data_set_12-catalyst-31.chk
 ----------------------------------
 #p M062X/DEF2TZVP opt freq pop=NBO
 ----------------------------------
 1/18=20,19=15,26=3,38=1/1,3;
 2/9=110,12=2,17=6,18=5,40=1/2;
 3/5=44,7=101,11=2,25=1,30=1,71=1,74=-55/1,2,3;
 4//1;
 5/5=2,38=5/2;
 6/7=2,8=2,9=2,10=2,28=1,40=1/1,7;
 7//1,2,3,16;
 1/18=20,19=15,26=3/3(2);
 2/9=110/2;
 99//99;
 2/9=110/2;
 3/5=44,7=101,11=2,25=1,30=1,71=1,74=-55/1,2,3;
 4/5=5,16=3,69=1/1;
 5/5=2,38=5/2;
 7//1,2,3,16;
 1/18=20,19=15,26=3/3(-5);
 2/9=110/2;
 6/7=2,8=2,9=2,10=2,19=2,28=1,40=1/1,7;
 99/9=1/99;
 Leave Link    1 at Tue Jan  7 16:43:06 2025, MaxMem=  4026531840 cpu:               1.1 elap:               0.4
 (Enter /usr/local/intel/g16/l101.exe)
 -----------------------
 data_set_12-catalyst-31
 -----------------------
 Symbolic Z-matrix:
 Charge =  0 Multiplicity = 2
 O                     1.3221   -0.0635    1.73234 
 N                     1.21177  -0.24916   0.43051 
 C                     2.03443  -1.31293  -0.24006 
 C                     2.85569  -2.04246   0.83481 
 C                     0.18229   0.50642  -0.31851 
 C                     1.09971  -2.31799  -0.95138 
 C                     2.9871   -0.64558  -1.25789 
 C                     0.22052   2.05365  -0.03107 
 H                     2.20303  -2.51103   1.57539 
 H                     3.51762  -1.35222   1.36264 
 H                     0.52489  -1.85041  -1.75716 
 H                     0.39279  -2.75603  -0.24043 
 H                     1.70155  -3.12135  -1.38969 
 H                     3.63508   0.07845  -0.75466 
 H                     2.44048  -0.12813  -2.05398 
 H                     3.61491  -1.4107   -1.72694 
 C                     1.68542   2.53923  -0.10045 
 C                    -0.38874   2.43829   1.33398 
 H                     3.45981  -2.8174    0.35081 
 H                     0.45807   0.40606  -1.37512 
 H                     2.27989   2.11254   0.71249 
 H                     1.71753   3.6315   -0.01345 
 H                     2.15071   2.26393  -1.05569 
 H                     0.14353   1.94596   2.15021 
 H                    -1.44698   2.16141   1.38836 
 H                    -0.31786   3.52485   1.46795 
 C                    -1.19611  -0.12956  -0.14195 
 C                    -2.0412   -0.27588  -1.25495 
 C                    -3.31191  -0.85402  -1.12285 
 C                    -3.74933  -1.30344   0.13156 
 C                    -2.9064   -1.16994   1.24637 
 C                    -1.63901  -0.58758   1.11216 
 C                    -0.59079   2.7543   -1.14718 
 H                    -1.70372   0.06045  -2.23235 
 H                    -3.95193  -0.9586   -1.99299 
 H                    -4.73016  -1.75512   0.23857 
 H                    -3.2358   -1.51979   2.21947 
 H                    -0.98544  -0.48992   1.9727 
 H                    -0.55675   3.83976  -1.00034 
 H                    -1.64148   2.44639  -1.1319 
 H                    -0.17896   2.53651  -2.1417 
 
 ITRead=  0  0  0  0  0  0  0  0  0  0  0  0  0  0  0  0  0  0  0  0
 ITRead=  0  0  0  0  0  0  0  0  0  0  0  0  0  0  0  0  0  0  0  0
 ITRead=  0
 MicOpt= -1 -1 -1 -1 -1 -1 -1 -1 -1 -1 -1 -1 -1 -1 -1 -1 -1 -1 -1 -1
 MicOpt= -1 -1 -1 -1 -1 -1 -1 -1 -1 -1 -1 -1 -1 -1 -1 -1 -1 -1 -1 -1
 MicOpt= -1
 NAtoms=     41 NQM=       41 NQMF=       0 NMMI=      0 NMMIF=      0
                NMic=       0 NMicF=      0.
                    Isotopes and Nuclear Properties:
 (Nuclear quadrupole moments (NQMom) in fm**2, nuclear magnetic moments (NMagM)
  in nuclear magnetons)

  Atom         1           2           3           4           5           6           7           8           9          10
 IAtWgt=          16          14          12          12          12          12          12          12           1           1
 AtmWgt=  15.9949146  14.0030740  12.0000000  12.0000000  12.0000000  12.0000000  12.0000000  12.0000000   1.0078250   1.0078250
 NucSpn=           0           2           0           0           0           0           0           0           1           1
 AtZEff=  -0.0000000  -0.0000000  -0.0000000  -0.0000000  -0.0000000  -0.0000000  -0.0000000  -0.0000000  -0.0000000  -0.0000000
 NQMom=    0.0000000   2.0440000   0.0000000   0.0000000   0.0000000   0.0000000   0.0000000   0.0000000   0.0000000   0.0000000
 NMagM=    0.0000000   0.4037610   0.0000000   0.0000000   0.0000000   0.0000000   0.0000000   0.0000000   2.7928460   2.7928460
 AtZNuc=   8.0000000   7.0000000   6.0000000   6.0000000   6.0000000   6.0000000   6.0000000   6.0000000   1.0000000   1.0000000

  Atom        11          12          13          14          15          16          17          18          19          20
 IAtWgt=           1           1           1           1           1           1          12          12           1           1
 AtmWgt=   1.0078250   1.0078250   1.0078250   1.0078250   1.0078250   1.0078250  12.0000000  12.0000000   1.0078250   1.0078250
 NucSpn=           1           1           1           1           1           1           0           0           1           1
 AtZEff=  -0.0000000  -0.0000000  -0.0000000  -0.0000000  -0.0000000  -0.0000000  -0.0000000  -0.0000000  -0.0000000  -0.0000000
 NQMom=    0.0000000   0.0000000   0.0000000   0.0000000   0.0000000   0.0000000   0.0000000   0.0000000   0.0000000   0.0000000
 NMagM=    2.7928460   2.7928460   2.7928460   2.7928460   2.7928460   2.7928460   0.0000000   0.0000000   2.7928460   2.7928460
 AtZNuc=   1.0000000   1.0000000   1.0000000   1.0000000   1.0000000   1.0000000   6.0000000   6.0000000   1.0000000   1.0000000

  Atom        21          22          23          24          25          26          27          28          29          30
 IAtWgt=           1           1           1           1           1           1          12          12          12          12
 AtmWgt=   1.0078250   1.0078250   1.0078250   1.0078250   1.0078250   1.0078250  12.0000000  12.0000000  12.0000000  12.0000000
 NucSpn=           1           1           1           1           1           1           0           0           0           0
 AtZEff=  -0.0000000  -0.0000000  -0.0000000  -0.0000000  -0.0000000  -0.0000000  -0.0000000  -0.0000000  -0.0000000  -0.0000000
 NQMom=    0.0000000   0.0000000   0.0000000   0.0000000   0.0000000   0.0000000   0.0000000   0.0000000   0.0000000   0.0000000
 NMagM=    2.7928460   2.7928460   2.7928460   2.7928460   2.7928460   2.7928460   0.0000000   0.0000000   0.0000000   0.0000000
 AtZNuc=   1.0000000   1.0000000   1.0000000   1.0000000   1.0000000   1.0000000   6.0000000   6.0000000   6.0000000   6.0000000

  Atom        31          32          33          34          35          36          37          38          39          40
 IAtWgt=          12          12          12           1           1           1           1           1           1           1
 AtmWgt=  12.0000000  12.0000000  12.0000000   1.0078250   1.0078250   1.0078250   1.0078250   1.0078250   1.0078250   1.0078250
 NucSpn=           0           0           0           1           1           1           1           1           1           1
 AtZEff=  -0.0000000  -0.0000000  -0.0000000  -0.0000000  -0.0000000  -0.0000000  -0.0000000  -0.0000000  -0.0000000  -0.0000000
 NQMom=    0.0000000   0.0000000   0.0000000   0.0000000   0.0000000   0.0000000   0.0000000   0.0000000   0.0000000   0.0000000
 NMagM=    0.0000000   0.0000000   0.0000000   2.7928460   2.7928460   2.7928460   2.7928460   2.7928460   2.7928460   2.7928460
 AtZNuc=   6.0000000   6.0000000   6.0000000   1.0000000   1.0000000   1.0000000   1.0000000   1.0000000   1.0000000   1.0000000

  Atom        41
 IAtWgt=           1
 AtmWgt=   1.0078250
 NucSpn=           1
 AtZEff=  -0.0000000
 NQMom=    0.0000000
 NMagM=    2.7928460
 AtZNuc=   1.0000000
 Leave Link  101 at Tue Jan  7 16:43:08 2025, MaxMem=  4026531840 cpu:              16.1 elap:               0.9
 (Enter /usr/local/intel/g16/l103.exe)

 GradGradGradGradGradGradGradGradGradGradGradGradGradGradGradGradGradGrad
 Berny optimization.
 Initialization pass.
                           ----------------------------
                           !    Initial Parameters    !
                           ! (Angstroms and Degrees)  !
 --------------------------                            --------------------------
 ! Name  Definition              Value          Derivative Info.                !
 --------------------------------------------------------------------------------
 ! R1    R(1,2)                  1.3196         estimate D2E/DX2                !
 ! R2    R(2,3)                  1.5027         estimate D2E/DX2                !
 ! R3    R(2,5)                  1.4805         estimate D2E/DX2                !
 ! R4    R(3,4)                  1.5369         estimate D2E/DX2                !
 ! R5    R(3,6)                  1.5459         estimate D2E/DX2                !
 ! R6    R(3,7)                  1.5456         estimate D2E/DX2                !
 ! R7    R(4,9)                  1.0927         estimate D2E/DX2                !
 ! R8    R(4,10)                 1.0923         estimate D2E/DX2                !
 ! R9    R(4,19)                 1.0953         estimate D2E/DX2                !
 ! R10   R(5,8)                  1.5742         estimate D2E/DX2                !
 ! R11   R(5,20)                 1.0966         estimate D2E/DX2                !
 ! R12   R(5,27)                 1.5283         estimate D2E/DX2                !
 ! R13   R(6,11)                 1.0947         estimate D2E/DX2                !
 ! R14   R(6,12)                 1.0941         estimate D2E/DX2                !
 ! R15   R(6,13)                 1.0953         estimate D2E/DX2                !
 ! R16   R(7,14)                 1.0942         estimate D2E/DX2                !
 ! R17   R(7,15)                 1.0956         estimate D2E/DX2                !
 ! R18   R(7,16)                 1.0952         estimate D2E/DX2                !
 ! R19   R(8,17)                 1.5448         estimate D2E/DX2                !
 ! R20   R(8,18)                 1.5435         estimate D2E/DX2                !
 ! R21   R(8,33)                 1.5475         estimate D2E/DX2                !
 ! R22   R(17,21)                1.0938         estimate D2E/DX2                !
 ! R23   R(17,22)                1.0962         estimate D2E/DX2                !
 ! R24   R(17,23)                1.0976         estimate D2E/DX2                !
 ! R25   R(18,24)                1.0918         estimate D2E/DX2                !
 ! R26   R(18,25)                1.0952         estimate D2E/DX2                !
 ! R27   R(18,26)                1.0971         estimate D2E/DX2                !
 ! R28   R(27,28)                1.4051         estimate D2E/DX2                !
 ! R29   R(27,32)                1.4067         estimate D2E/DX2                !
 ! R30   R(28,29)                1.4023         estimate D2E/DX2                !
 ! R31   R(28,34)                1.0873         estimate D2E/DX2                !
 ! R32   R(29,30)                1.4024         estimate D2E/DX2                !
 ! R33   R(29,35)                1.0852         estimate D2E/DX2                !
 ! R34   R(30,31)                1.404          estimate D2E/DX2                !
 ! R35   R(30,36)                1.0851         estimate D2E/DX2                !
 ! R36   R(31,32)                1.4012         estimate D2E/DX2                !
 ! R37   R(31,37)                1.0853         estimate D2E/DX2                !
 ! R38   R(32,38)                1.085          estimate D2E/DX2                !
 ! R39   R(33,39)                1.0959         estimate D2E/DX2                !
 ! R40   R(33,40)                1.095          estimate D2E/DX2                !
 ! R41   R(33,41)                1.0982         estimate D2E/DX2                !
 ! A1    A(1,2,3)              119.6079         estimate D2E/DX2                !
 ! A2    A(1,2,5)              119.0416         estimate D2E/DX2                !
 ! A3    A(3,2,5)              121.079          estimate D2E/DX2                !
 ! A4    A(2,3,4)              108.4504         estimate D2E/DX2                !
 ! A5    A(2,3,6)              109.5459         estimate D2E/DX2                !
 ! A6    A(2,3,7)              109.0054         estimate D2E/DX2                !
 ! A7    A(4,3,6)              109.651          estimate D2E/DX2                !
 ! A8    A(4,3,7)              109.6424         estimate D2E/DX2                !
 ! A9    A(6,3,7)              110.5109         estimate D2E/DX2                !
 ! A10   A(3,4,9)              111.0012         estimate D2E/DX2                !
 ! A11   A(3,4,10)             111.2112         estimate D2E/DX2                !
 ! A12   A(3,4,19)             108.7549         estimate D2E/DX2                !
 ! A13   A(9,4,10)             107.7834         estimate D2E/DX2                !
 ! A14   A(9,4,19)             108.9982         estimate D2E/DX2                !
 ! A15   A(10,4,19)            109.0478         estimate D2E/DX2                !
 ! A16   A(2,5,8)              113.102          estimate D2E/DX2                !
 ! A17   A(2,5,20)             105.4202         estimate D2E/DX2                !
 ! A18   A(2,5,27)             110.8757         estimate D2E/DX2                !
 ! A19   A(8,5,20)             105.0571         estimate D2E/DX2                !
 ! A20   A(8,5,27)             114.1945         estimate D2E/DX2                !
 ! A21   A(20,5,27)            107.4605         estimate D2E/DX2                !
 ! A22   A(3,6,11)             112.2403         estimate D2E/DX2                !
 ! A23   A(3,6,12)             110.6078         estimate D2E/DX2                !
 ! A24   A(3,6,13)             109.1929         estimate D2E/DX2                !
 ! A25   A(11,6,12)            108.062          estimate D2E/DX2                !
 ! A26   A(11,6,13)            107.8934         estimate D2E/DX2                !
 ! A27   A(12,6,13)            108.748          estimate D2E/DX2                !
 ! A28   A(3,7,14)             110.355          estimate D2E/DX2                !
 ! A29   A(3,7,15)             112.0186         estimate D2E/DX2                !
 ! A30   A(3,7,16)             109.4939         estimate D2E/DX2                !
 ! A31   A(14,7,15)            108.4887         estimate D2E/DX2                !
 ! A32   A(14,7,16)            108.6478         estimate D2E/DX2                !
 ! A33   A(15,7,16)            107.7436         estimate D2E/DX2                !
 ! A34   A(5,8,17)             108.8912         estimate D2E/DX2                !
 ! A35   A(5,8,18)             113.38           estimate D2E/DX2                !
 ! A36   A(5,8,33)             107.4927         estimate D2E/DX2                !
 ! A37   A(17,8,18)            109.6139         estimate D2E/DX2                !
 ! A38   A(17,8,33)            108.8098         estimate D2E/DX2                !
 ! A39   A(18,8,33)            108.5461         estimate D2E/DX2                !
 ! A40   A(8,17,21)            111.0621         estimate D2E/DX2                !
 ! A41   A(8,17,22)            109.7188         estimate D2E/DX2                !
 ! A42   A(8,17,23)            111.2368         estimate D2E/DX2                !
 ! A43   A(21,17,22)           108.2883         estimate D2E/DX2                !
 ! A44   A(21,17,23)           108.5779         estimate D2E/DX2                !
 ! A45   A(22,17,23)           107.8529         estimate D2E/DX2                !
 ! A46   A(8,18,24)            110.8775         estimate D2E/DX2                !
 ! A47   A(8,18,25)            111.2418         estimate D2E/DX2                !
 ! A48   A(8,18,26)            109.2262         estimate D2E/DX2                !
 ! A49   A(24,18,25)           108.6595         estimate D2E/DX2                !
 ! A50   A(24,18,26)           108.8948         estimate D2E/DX2                !
 ! A51   A(25,18,26)           107.8634         estimate D2E/DX2                !
 ! A52   A(5,27,28)            119.6221         estimate D2E/DX2                !
 ! A53   A(5,27,32)            121.4988         estimate D2E/DX2                !
 ! A54   A(28,27,32)           118.8761         estimate D2E/DX2                !
 ! A55   A(27,28,29)           120.8849         estimate D2E/DX2                !
 ! A56   A(27,28,34)           119.5468         estimate D2E/DX2                !
 ! A57   A(29,28,34)           119.5679         estimate D2E/DX2                !
 ! A58   A(28,29,30)           119.9349         estimate D2E/DX2                !
 ! A59   A(28,29,35)           119.9089         estimate D2E/DX2                !
 ! A60   A(30,29,35)           120.1549         estimate D2E/DX2                !
 ! A61   A(29,30,31)           119.5046         estimate D2E/DX2                !
 ! A62   A(29,30,36)           120.2328         estimate D2E/DX2                !
 ! A63   A(31,30,36)           120.262          estimate D2E/DX2                !
 ! A64   A(30,31,32)           120.4308         estimate D2E/DX2                !
 ! A65   A(30,31,37)           119.9395         estimate D2E/DX2                !
 ! A66   A(32,31,37)           119.6297         estimate D2E/DX2                !
 ! A67   A(27,32,31)           120.3652         estimate D2E/DX2                !
 ! A68   A(27,32,38)           119.2179         estimate D2E/DX2                !
 ! A69   A(31,32,38)           120.4159         estimate D2E/DX2                !
 ! A70   A(8,33,39)            109.6049         estimate D2E/DX2                !
 ! A71   A(8,33,40)            111.4492         estimate D2E/DX2                !
 ! A72   A(8,33,41)            111.5148         estimate D2E/DX2                !
 ! A73   A(39,33,40)           107.8461         estimate D2E/DX2                !
 ! A74   A(39,33,41)           107.825          estimate D2E/DX2                !
 ! A75   A(40,33,41)           108.4631         estimate D2E/DX2                !
 ! D1    D(1,2,3,4)              2.0643         estimate D2E/DX2                !
 ! D2    D(1,2,3,6)            121.7101         estimate D2E/DX2                !
 ! D3    D(1,2,3,7)           -117.2571         estimate D2E/DX2                !
 ! D4    D(5,2,3,4)           -171.894          estimate D2E/DX2                !
 ! D5    D(5,2,3,6)            -52.2481         estimate D2E/DX2                !
 ! D6    D(5,2,3,7)             68.7847         estimate D2E/DX2                !
 ! D7    D(1,2,5,8)             50.5539         estimate D2E/DX2                !
 ! D8    D(1,2,5,20)           164.7988         estimate D2E/DX2                !
 ! D9    D(1,2,5,27)           -79.2049         estimate D2E/DX2                !
 ! D10   D(3,2,5,8)           -135.4543         estimate D2E/DX2                !
 ! D11   D(3,2,5,20)           -21.2094         estimate D2E/DX2                !
 ! D12   D(3,2,5,27)            94.7869         estimate D2E/DX2                !
 ! D13   D(2,3,4,9)             60.26           estimate D2E/DX2                !
 ! D14   D(2,3,4,10)           -59.7342         estimate D2E/DX2                !
 ! D15   D(2,3,4,19)          -179.8323         estimate D2E/DX2                !
 ! D16   D(6,3,4,9)            -59.32           estimate D2E/DX2                !
 ! D17   D(6,3,4,10)          -179.3142         estimate D2E/DX2                !
 ! D18   D(6,3,4,19)            60.5877         estimate D2E/DX2                !
 ! D19   D(7,3,4,9)            179.1804         estimate D2E/DX2                !
 ! D20   D(7,3,4,10)            59.1862         estimate D2E/DX2                !
 ! D21   D(7,3,4,19)           -60.9118         estimate D2E/DX2                !
 ! D22   D(2,3,6,11)            63.5882         estimate D2E/DX2                !
 ! D23   D(2,3,6,12)           -57.1841         estimate D2E/DX2                !
 ! D24   D(2,3,6,13)          -176.8198         estimate D2E/DX2                !
 ! D25   D(4,3,6,11)          -177.5055         estimate D2E/DX2                !
 ! D26   D(4,3,6,12)            61.7222         estimate D2E/DX2                !
 ! D27   D(4,3,6,13)           -57.9135         estimate D2E/DX2                !
 ! D28   D(7,3,6,11)           -56.5293         estimate D2E/DX2                !
 ! D29   D(7,3,6,12)          -177.3016         estimate D2E/DX2                !
 ! D30   D(7,3,6,13)            63.0627         estimate D2E/DX2                !
 ! D31   D(2,3,7,14)            58.5336         estimate D2E/DX2                !
 ! D32   D(2,3,7,15)           -62.4562         estimate D2E/DX2                !
 ! D33   D(2,3,7,16)           178.0794         estimate D2E/DX2                !
 ! D34   D(4,3,7,14)           -60.0438         estimate D2E/DX2                !
 ! D35   D(4,3,7,15)           178.9664         estimate D2E/DX2                !
 ! D36   D(4,3,7,16)            59.502          estimate D2E/DX2                !
 ! D37   D(6,3,7,14)           178.9748         estimate D2E/DX2                !
 ! D38   D(6,3,7,15)            57.985          estimate D2E/DX2                !
 ! D39   D(6,3,7,16)           -61.4794         estimate D2E/DX2                !
 ! D40   D(2,5,8,17)            46.114          estimate D2E/DX2                !
 ! D41   D(2,5,8,18)           -76.1941         estimate D2E/DX2                !
 ! D42   D(2,5,8,33)           163.8344         estimate D2E/DX2                !
 ! D43   D(20,5,8,17)          -68.3494         estimate D2E/DX2                !
 ! D44   D(20,5,8,18)          169.3426         estimate D2E/DX2                !
 ! D45   D(20,5,8,33)           49.371          estimate D2E/DX2                !
 ! D46   D(27,5,8,17)          174.1661         estimate D2E/DX2                !
 ! D47   D(27,5,8,18)           51.8581         estimate D2E/DX2                !
 ! D48   D(27,5,8,33)          -68.1135         estimate D2E/DX2                !
 ! D49   D(2,5,27,28)         -136.5539         estimate D2E/DX2                !
 ! D50   D(2,5,27,32)           42.8081         estimate D2E/DX2                !
 ! D51   D(8,5,27,28)           94.2683         estimate D2E/DX2                !
 ! D52   D(8,5,27,32)          -86.3697         estimate D2E/DX2                !
 ! D53   D(20,5,27,28)         -21.8278         estimate D2E/DX2                !
 ! D54   D(20,5,27,32)         157.5342         estimate D2E/DX2                !
 ! D55   D(5,8,17,21)          -66.5844         estimate D2E/DX2                !
 ! D56   D(5,8,17,22)          173.7298         estimate D2E/DX2                !
 ! D57   D(5,8,17,23)           54.4755         estimate D2E/DX2                !
 ! D58   D(18,8,17,21)          57.9709         estimate D2E/DX2                !
 ! D59   D(18,8,17,22)         -61.7148         estimate D2E/DX2                !
 ! D60   D(18,8,17,23)         179.0309         estimate D2E/DX2                !
 ! D61   D(33,8,17,21)         176.5318         estimate D2E/DX2                !
 ! D62   D(33,8,17,22)          56.846          estimate D2E/DX2                !
 ! D63   D(33,8,17,23)         -62.4082         estimate D2E/DX2                !
 ! D64   D(5,8,18,24)           59.4211         estimate D2E/DX2                !
 ! D65   D(5,8,18,25)          -61.6196         estimate D2E/DX2                !
 ! D66   D(5,8,18,26)          179.4261         estimate D2E/DX2                !
 ! D67   D(17,8,18,24)         -62.4847         estimate D2E/DX2                !
 ! D68   D(17,8,18,25)         176.4747         estimate D2E/DX2                !
 ! D69   D(17,8,18,26)          57.5204         estimate D2E/DX2                !
 ! D70   D(33,8,18,24)         178.7912         estimate D2E/DX2                !
 ! D71   D(33,8,18,25)          57.7505         estimate D2E/DX2                !
 ! D72   D(33,8,18,26)         -61.2038         estimate D2E/DX2                !
 ! D73   D(5,8,33,39)         -177.9883         estimate D2E/DX2                !
 ! D74   D(5,8,33,40)           62.7062         estimate D2E/DX2                !
 ! D75   D(5,8,33,41)          -58.6678         estimate D2E/DX2                !
 ! D76   D(17,8,33,39)         -60.2152         estimate D2E/DX2                !
 ! D77   D(17,8,33,40)        -179.5206         estimate D2E/DX2                !
 ! D78   D(17,8,33,41)          59.1054         estimate D2E/DX2                !
 ! D79   D(18,8,33,39)          59.0149         estimate D2E/DX2                !
 ! D80   D(18,8,33,40)         -60.2905         estimate D2E/DX2                !
 ! D81   D(18,8,33,41)         178.3355         estimate D2E/DX2                !
 ! D82   D(5,27,28,29)        -179.912          estimate D2E/DX2                !
 ! D83   D(5,27,28,34)           0.3127         estimate D2E/DX2                !
 ! D84   D(32,27,28,29)          0.7092         estimate D2E/DX2                !
 ! D85   D(32,27,28,34)       -179.066          estimate D2E/DX2                !
 ! D86   D(5,27,32,31)        -179.8485         estimate D2E/DX2                !
 ! D87   D(5,27,32,38)          -0.2102         estimate D2E/DX2                !
 ! D88   D(28,27,32,31)         -0.4819         estimate D2E/DX2                !
 ! D89   D(28,27,32,38)        179.1564         estimate D2E/DX2                !
 ! D90   D(27,28,29,30)         -0.4525         estimate D2E/DX2                !
 ! D91   D(27,28,29,35)        179.9542         estimate D2E/DX2                !
 ! D92   D(34,28,29,30)        179.3227         estimate D2E/DX2                !
 ! D93   D(34,28,29,35)         -0.2706         estimate D2E/DX2                !
 ! D94   D(28,29,30,31)         -0.0394         estimate D2E/DX2                !
 ! D95   D(28,29,30,36)       -179.7587         estimate D2E/DX2                !
 ! D96   D(35,29,30,31)        179.553          estimate D2E/DX2                !
 ! D97   D(35,29,30,36)         -0.1663         estimate D2E/DX2                !
 ! D98   D(29,30,31,32)          0.263          estimate D2E/DX2                !
 ! D99   D(29,30,31,37)       -179.6975         estimate D2E/DX2                !
 ! D100  D(36,30,31,32)        179.9822         estimate D2E/DX2                !
 ! D101  D(36,30,31,37)          0.0217         estimate D2E/DX2                !
 ! D102  D(30,31,32,27)          0.0009         estimate D2E/DX2                !
 ! D103  D(30,31,32,38)       -179.633          estimate D2E/DX2                !
 ! D104  D(37,31,32,27)        179.9615         estimate D2E/DX2                !
 ! D105  D(37,31,32,38)          0.3276         estimate D2E/DX2                !
 --------------------------------------------------------------------------------
 Trust Radius=3.00D-01 FncErr=1.00D-07 GrdErr=1.00D-06 EigMax=2.50D+02 EigMin=1.00D-04
 Number of steps in this run=    231 maximum allowed number of steps=    246.
 GradGradGradGradGradGradGradGradGradGradGradGradGradGradGradGradGradGrad

 Leave Link  103 at Tue Jan  7 16:43:08 2025, MaxMem=  4026531840 cpu:               0.3 elap:               0.2
 (Enter /usr/local/intel/g16/l202.exe)
                          Input orientation:                          
 ---------------------------------------------------------------------
 Center     Atomic      Atomic             Coordinates (Angstroms)
 Number     Number       Type             X           Y           Z
 ---------------------------------------------------------------------
      1          8           0        1.322097   -0.063501    1.732340
      2          7           0        1.211769   -0.249163    0.430513
      3          6           0        2.034428   -1.312927   -0.240057
      4          6           0        2.855687   -2.042465    0.834809
      5          6           0        0.182287    0.506423   -0.318505
      6          6           0        1.099708   -2.317992   -0.951377
      7          6           0        2.987104   -0.645579   -1.257895
      8          6           0        0.220516    2.053648   -0.031070
      9          1           0        2.203030   -2.511025    1.575386
     10          1           0        3.517624   -1.352218    1.362635
     11          1           0        0.524888   -1.850410   -1.757159
     12          1           0        0.392791   -2.756033   -0.240426
     13          1           0        1.701549   -3.121350   -1.389694
     14          1           0        3.635081    0.078453   -0.754661
     15          1           0        2.440479   -0.128128   -2.053985
     16          1           0        3.614911   -1.410695   -1.726935
     17          6           0        1.685422    2.539229   -0.100453
     18          6           0       -0.388739    2.438290    1.333977
     19          1           0        3.459811   -2.817403    0.350805
     20          1           0        0.458068    0.406061   -1.375121
     21          1           0        2.279891    2.112545    0.712492
     22          1           0        1.717528    3.631495   -0.013453
     23          1           0        2.150713    2.263927   -1.055686
     24          1           0        0.143527    1.945961    2.150212
     25          1           0       -1.446981    2.161409    1.388361
     26          1           0       -0.317859    3.524845    1.467945
     27          6           0       -1.196105   -0.129564   -0.141947
     28          6           0       -2.041201   -0.275880   -1.254953
     29          6           0       -3.311906   -0.854015   -1.122848
     30          6           0       -3.749325   -1.303443    0.131556
     31          6           0       -2.906401   -1.169940    1.246374
     32          6           0       -1.639014   -0.587577    1.112156
     33          6           0       -0.590788    2.754296   -1.147178
     34          1           0       -1.703722    0.060450   -2.232352
     35          1           0       -3.951931   -0.958595   -1.992985
     36          1           0       -4.730164   -1.755122    0.238565
     37          1           0       -3.235802   -1.519793    2.219467
     38          1           0       -0.985444   -0.489915    1.972698
     39          1           0       -0.556749    3.839760   -1.000341
     40          1           0       -1.641483    2.446387   -1.131900
     41          1           0       -0.178963    2.536511   -2.141701
 ---------------------------------------------------------------------
                    Distance matrix (angstroms):
                    1          2          3          4          5
     1  O    0.000000
     2  N    1.319620   0.000000
     3  C    2.441072   1.502673   0.000000
     4  C    2.659654   2.466141   1.536889   0.000000
     5  C    2.414528   1.480463   2.597425   3.869629   0.000000
     6  C    3.512054   2.490428   1.545909   2.519888   3.036364
     7  C    3.471681   2.481871   1.545619   2.519518   3.174360
     8  C    2.967392   2.549231   3.829854   4.946920   1.574162
     9  H    2.605965   2.722013   2.181673   1.092687   4.095756
    10  H    2.572511   2.720763   2.184041   1.092338   4.171960
    11  H    4.000649   2.796731   2.206626   3.491104   2.782402
    12  H    3.464844   2.721265   2.185755   2.780497   3.270172
    13  H    4.386516   3.435476   2.168610   2.728450   4.076314
    14  H    3.399297   2.717427   2.182394   2.762637   3.506448
    15  H    3.948571   2.774366   2.204305   3.490303   2.917872
    16  H    4.363314   3.432030   2.172163   2.745558   4.176353
    17  C    3.203957   2.877743   3.870452   4.820390   2.537570
    18  C    3.056896   3.255807   4.735077   5.554515   2.605547
    19  H    3.749992   3.414074   2.155060   1.095333   4.715714
    20  H    3.259348   2.063419   2.593878   4.077701   1.096615
    21  H    2.587013   2.607309   3.563911   4.196500   2.835935
    22  H    4.105746   3.938579   4.959746   5.848827   3.495153
    23  H    3.725133   3.066924   3.670512   4.755625   2.739883
    24  H    2.366766   2.986147   4.461978   4.999364   2.858030
    25  H    3.568801   3.714469   5.181020   6.040855   2.882167
    26  H    3.954186   4.202281   5.643985   6.439503   3.542940
    27  C    3.139850   2.477876   3.441848   4.585876   1.528272
    28  C    4.503421   3.663785   4.326226   5.609585   2.536303
    29  C    5.500090   4.821038   5.438125   6.579061   3.834989
    30  C    5.460704   5.080683   5.795687   6.683330   4.351522
    31  C    4.397791   4.297998   5.161561   5.842289   3.846951
    32  C    3.070417   2.950614   3.981054   4.732437   2.561399
    33  C    4.459903   3.841756   4.925133   6.230199   2.517395
    34  H    4.988961   3.960656   4.452996   5.883701   2.723735
    35  H    6.518789   5.748081   6.247784   7.450829   4.694882
    36  H    6.459320   6.132807   6.795905   7.614671   5.436643
    37  H    4.809628   4.959410   5.819568   6.268708   4.714890
    38  H    2.358887   2.695189   3.833179   4.296451   2.757879
    39  H    5.121821   4.679134   5.817423   7.043654   3.481696
    40  H    4.825579   4.224710   5.332930   6.651487   2.784099
    41  H    4.901167   4.038614   4.830478   6.247858   2.752418
                    6          7          8          9         10
     6  C    0.000000
     7  C    2.540311   0.000000
     8  C    4.553151   4.055236   0.000000
     9  H    2.763894   3.481687   5.229465   0.000000
    10  H    3.483344   2.765496   4.940977   1.765291   0.000000
    11  H    1.094685   2.786286   4.279450   3.789252   4.351756
    12  H    1.094104   3.495671   4.817317   2.575688   3.782206
    13  H    1.095317   2.792752   5.551569   3.068498   3.742095
    14  H    3.494247   1.094231   4.010515   3.766336   2.558038
    15  H    2.794444   1.095588   3.712219   4.348208   3.785754
    16  H    2.784048   1.095236   5.138049   3.756256   3.091654
    17  C    4.965856   3.630021   1.544847   5.346159   4.543231
    18  C    5.482749   5.255889   1.543533   5.592072   5.443202
    19  H    2.741382   2.743754   5.862252   1.781282   1.781547
    20  H    2.830499   2.741480   2.139497   4.501086   4.466289
    21  H    4.877597   3.462632   2.190292   4.704029   3.736208
    22  H    6.054568   4.631827   2.175076   6.363228   5.474610
    23  H    4.702071   3.034084   2.195385   5.452105   4.559959
    24  H    5.358678   5.139767   2.185295   4.943349   4.783596
    25  H    5.659066   5.877326   2.192474   5.932048   6.082231
    26  H    6.480846   5.978747   2.168251   6.542030   6.205462
    27  C    3.273401   4.360143   2.604904   4.491626   5.096851
    28  C    3.758682   5.041878   3.469864   5.569577   6.237853
    29  C    4.651341   6.303904   4.703668   6.359298   7.284800
    30  C    5.071013   6.909619   5.201552   6.242870   7.370650
    31  C    4.711374   6.424929   4.669153   5.292735   6.427662
    32  C    3.840977   5.198218   3.426498   4.321520   5.219035
    33  C    5.350161   4.936873   1.547520   6.552967   6.327849
    34  H    3.893212   4.842715   3.538527   6.031091   6.494768
    35  H    5.334038   6.984880   5.507452   7.281954   8.198133
    36  H    5.976637   7.938936   6.252093   7.101243   8.333779
    37  H    5.430287   7.181981   5.457154   5.565813   6.809626
    38  H    4.029881   5.122704   3.455306   3.795933   4.625296
    39  H    6.376845   5.722193   2.175735   7.388046   7.010050
    40  H    5.499639   5.567760   2.198434   6.832687   6.875208
    41  H    5.159270   4.575018   2.201705   6.705837   6.408380
                   11         12         13         14         15
    11  H    0.000000
    12  H    1.771463   0.000000
    13  H    1.770551   1.779641   0.000000
    14  H    3.794577   4.337187   3.792170   0.000000
    15  H    2.593039   3.793139   3.153835   1.777074   0.000000
    16  H    3.121299   3.794957   2.588634   1.778563   1.769528
    17  C    4.833264   5.452549   5.805563   3.206958   3.391341
    18  C    5.364959   5.483660   6.534316   5.111004   5.105807
    19  H    3.740636   3.124089   2.492630   3.104635   3.748900
    20  H    2.289559   3.360154   3.740199   3.253569   2.162445
    21  H    4.988409   5.307754   5.669861   2.850721   3.563678
    22  H    5.874877   6.527401   6.891677   4.104937   4.338340
    23  H    4.479190   5.380979   5.414288   2.658996   2.608159
    24  H    5.461265   5.280723   6.374638   4.910888   5.220451
    25  H    5.466009   5.497176   6.748213   5.895643   5.674863
    26  H    6.324941   6.547746   7.511060   5.695905   5.775520
    27  C    2.920965   3.071258   4.347879   4.874325   4.108605
    28  C    3.052240   3.620047   4.703513   5.709293   4.554749
    29  C    4.014491   4.256891   5.508788   7.018952   5.872296
    30  C    4.704818   4.405169   5.943990   7.564686   6.668705
    31  C    4.610639   3.951067   5.655975   6.953676   6.369212
    32  C    3.809224   3.264952   4.882481   5.634242   5.184381
    33  C    4.777042   5.670393   6.311643   5.017188   4.280099
    34  H    2.973869   4.036795   4.736010   5.539559   4.152322
    35  H    4.570870   5.017854   6.083034   7.757040   6.446418
    36  H    5.622061   5.241748   6.773827   8.621242   7.702014
    37  H    5.483215   4.554783   6.322062   7.655642   7.240117
    38  H    4.247809   3.454380   5.044805   5.395441   5.299247
    39  H    5.841297   6.706980   7.328612   5.637307   5.083077
    40  H    4.852481   5.656693   6.499386   5.795822   4.913327
    41  H    4.459636   5.652678   6.009429   4.744772   3.737576
                   16         17         18         19         20
    16  H    0.000000
    17  C    4.687246   0.000000
    18  C    6.341378   2.523870   0.000000
    19  H    2.513939   5.660883   6.587888   0.000000
    20  H    3.659239   2.771567   3.490881   4.730751   0.000000
    21  H    4.488463   1.093770   2.759337   5.082068   3.254114
    22  H    5.653297   1.096196   2.770499   6.690031   3.720726
    23  H    4.012144   1.097614   3.491376   5.432483   2.533526
    24  H    6.192731   2.791935   1.091758   6.076614   3.859819
    25  H    6.934533   3.488734   1.095215   7.066944   3.787782
    26  H    7.073436   2.728451   1.097075   7.466117   4.290909
    27  C    5.224879   3.927770   3.069864   5.398596   2.131643
    28  C    5.788106   4.810970   4.098769   6.268886   2.593420
    29  C    6.975357   6.126392   5.041842   7.202964   3.982981
    30  C    7.595885   6.660062   5.171066   7.369653   4.784834
    31  C    7.171195   6.054479   4.400639   6.636628   4.547050
    32  C    6.028407   4.722204   3.281503   5.616920   3.401708
    33  C    5.947367   2.514561   2.509345   7.049478   2.581911
    34  H    5.541441   4.709101   4.483526   6.451109   2.351091
    35  H    7.585003   6.899000   5.941704   7.992649   4.657481
    36  H    8.580332   7.727621   6.134542   8.259342   5.847431
    37  H    7.906849   6.787940   4.955429   7.071557   5.502241
    38  H    5.974813   4.539515   3.055881   5.273332   3.754250
    39  H    6.745218   2.743813   2.727890   7.891525   3.600084
    40  H    6.546818   3.484365   2.765860   7.478576   2.937720
    41  H    5.490532   2.764531   3.483388   6.936689   2.352078
                   21         22         23         24         25
    21  H    0.000000
    22  H    1.774953   0.000000
    23  H    1.779342   1.773173   0.000000
    24  H    2.580473   3.162270   3.795745   0.000000
    25  H    3.787976   3.760366   4.350549   1.776668   0.000000
    26  H    3.051820   2.519666   3.748663   1.780798   1.772063
    27  C    4.223703   4.759342   4.214844   3.369927   2.766467
    28  C    5.314814   5.562099   4.905351   4.615708   3.644254
    29  C    6.590686   6.829770   6.290173   5.522029   4.344755
    30  C    6.953985   7.366215   6.996150   5.457829   4.345750
    31  C    6.160955   6.783927   6.531870   4.452844   3.639774
    32  C    4.775794   5.507625   5.214657   3.267082   2.769493
    33  C    3.480088   2.717192   2.786514   3.473529   2.741084
    34  H    5.362124   5.420408   4.593095   5.116087   4.193985
    35  H    7.455677   7.558455   6.964585   6.509632   5.238578
    36  H    8.020245   8.405468   8.073061   6.411339   5.238372
    37  H    6.774048   7.487134   7.352395   4.841086   4.176346
    38  H    4.361574   5.313838   5.156572   2.690647   2.753904
    39  H    3.736789   2.487902   3.133155   3.742038   3.052093
    40  H    4.346310   3.733411   3.797348   3.769476   2.543769
    41  H    3.791059   3.053704   2.584786   4.344337   3.769603
                   26         27         28         29         30
    26  H    0.000000
    27  C    4.088737   0.000000
    28  C    4.982930   1.405126   0.000000
    29  C    5.903469   2.442050   1.402278   0.000000
    30  C    6.072336   2.823425   2.428164   1.402444   0.000000
    31  C    5.365692   2.436171   2.793663   2.424346   1.403981
    32  C    4.334057   1.406669   2.421180   2.804425   2.434636
    33  C    2.739910   3.113446   3.361143   4.519401   5.298751
    34  H    5.254983   2.159531   1.087345   2.157198   3.410683
    35  H    6.729469   3.421726   2.159092   1.085222   2.161861
    36  H    6.989840   3.908555   3.413103   2.162613   1.085131
    37  H    5.876015   3.416047   3.878915   3.408830   2.160992
    38  H    4.101066   2.155448   3.402670   3.889396   3.419162
    39  H    2.499735   4.111101   4.382570   5.444026   6.158431
    40  H    3.110345   2.795334   2.754207   3.699060   4.483363
    41  H    3.745082   3.484473   3.487663   4.727479   5.714930
                   31         32         33         34         35
    31  C    0.000000
    32  C    1.401225   0.000000
    33  C    5.146920   4.167911   0.000000
    34  H    3.880957   3.407324   3.110150   0.000000
    35  H    3.410461   3.889620   5.079196   2.479958   0.000000
    36  H    2.164308   3.417825   6.276111   4.308258   2.493976
    37  H    1.085271   2.155202   6.049647   4.966199   4.309586
    38  H    2.163344   1.085000   4.518217   4.301310   4.974570
    39  H    5.972076   5.023470   1.095879   4.137219   5.961276
    40  H    4.509327   3.773689   1.094989   2.628224   4.203991
    41  H    5.714521   4.741230   1.098229   2.909293   5.145208
                   36         37         38         39         40
    36  H    0.000000
    37  H    2.492483   0.000000
    38  H    4.316352   2.487098   0.000000
    39  H    7.089075   6.802154   5.269613   0.000000
    40  H    5.391735   5.431767   4.323284   1.770718   0.000000
    41  H    6.693072   6.694599   5.170875   1.773100   1.779546
                   41
    41  H    0.000000
 Stoichiometry    C15H24NO(2)
 Framework group  C1[X(C15H24NO)]
 Deg. of freedom   117
 Full point group                 C1      NOp   1
 Largest Abelian subgroup         C1      NOp   1
 Largest concise Abelian subgroup C1      NOp   1
                         Standard orientation:                         
 ---------------------------------------------------------------------
 Center     Atomic      Atomic             Coordinates (Angstroms)
 Number     Number       Type             X           Y           Z
 ---------------------------------------------------------------------
      1          8           0        1.322097   -0.063501    1.732340
      2          7           0        1.211769   -0.249163    0.430513
      3          6           0        2.034428   -1.312927   -0.240057
      4          6           0        2.855687   -2.042465    0.834809
      5          6           0        0.182287    0.506423   -0.318505
      6          6           0        1.099708   -2.317992   -0.951377
      7          6           0        2.987104   -0.645579   -1.257895
      8          6           0        0.220516    2.053648   -0.031070
      9          1           0        2.203030   -2.511025    1.575386
     10          1           0        3.517624   -1.352218    1.362635
     11          1           0        0.524888   -1.850410   -1.757159
     12          1           0        0.392791   -2.756033   -0.240426
     13          1           0        1.701549   -3.121350   -1.389694
     14          1           0        3.635081    0.078453   -0.754661
     15          1           0        2.440479   -0.128128   -2.053985
     16          1           0        3.614911   -1.410695   -1.726935
     17          6           0        1.685422    2.539229   -0.100453
     18          6           0       -0.388739    2.438290    1.333977
     19          1           0        3.459811   -2.817403    0.350805
     20          1           0        0.458068    0.406061   -1.375121
     21          1           0        2.279891    2.112545    0.712492
     22          1           0        1.717528    3.631495   -0.013453
     23          1           0        2.150713    2.263927   -1.055686
     24          1           0        0.143527    1.945961    2.150212
     25          1           0       -1.446981    2.161409    1.388361
     26          1           0       -0.317859    3.524845    1.467945
     27          6           0       -1.196105   -0.129564   -0.141947
     28          6           0       -2.041201   -0.275880   -1.254953
     29          6           0       -3.311906   -0.854015   -1.122848
     30          6           0       -3.749325   -1.303443    0.131556
     31          6           0       -2.906401   -1.169940    1.246374
     32          6           0       -1.639014   -0.587577    1.112156
     33          6           0       -0.590788    2.754296   -1.147178
     34          1           0       -1.703722    0.060450   -2.232352
     35          1           0       -3.951931   -0.958595   -1.992985
     36          1           0       -4.730164   -1.755121    0.238565
     37          1           0       -3.235802   -1.519793    2.219467
     38          1           0       -0.985444   -0.489915    1.972698
     39          1           0       -0.556749    3.839760   -1.000341
     40          1           0       -1.641483    2.446387   -1.131900
     41          1           0       -0.178963    2.536511   -2.141701
 ---------------------------------------------------------------------
 Rotational constants (GHZ):           0.5925943           0.4054368           0.3161578
 Leave Link  202 at Tue Jan  7 16:43:09 2025, MaxMem=  4026531840 cpu:               0.1 elap:               0.3
 (Enter /usr/local/intel/g16/l301.exe)
 Standard basis: def2TZVP (5D, 7F)
 Ernie: Thresh=  0.10000D-02 Tol=  0.10000D-05 Strict=F.
 There are   756 symmetry adapted cartesian basis functions of A   symmetry.
 There are   671 symmetry adapted basis functions of A   symmetry.
   671 basis functions,  1059 primitive gaussians,   756 cartesian basis functions
    65 alpha electrons       64 beta electrons
       nuclear repulsion energy      1322.6630167413 Hartrees.
 IExCor= 4336 DFT=T Ex+Corr=M062X ExCW=0 ScaHFX=  0.540000
 ScaDFX=  1.000000  1.000000  1.000000  1.000000 ScalE2=  1.000000  1.000000
 IRadAn=      5 IRanWt=     -1 IRanGd=            0 ICorTp=0 IEmpDi=  4
 NAtoms=   41 NActive=   41 NUniq=   41 SFac= 1.00D+00 NAtFMM=   60 NAOKFM=F Big=F
 Integral buffers will be    131072 words long.
 Raffenetti 2 integral format.
 Two-electron integral symmetry is turned on.
 Leave Link  301 at Tue Jan  7 16:43:09 2025, MaxMem=  4026531840 cpu:               1.0 elap:               0.2
 (Enter /usr/local/intel/g16/l302.exe)
 NPDir=0 NMtPBC=     1 NCelOv=     1 NCel=       1 NClECP=     1 NCelD=      1
         NCelK=      1 NCelE2=     1 NClLst=     1 CellRange=     0.0.
 One-electron integrals computed using PRISM.
 One-electron integral symmetry used in STVInt
   1 Symmetry operations used in ECPInt.
 ECPInt:  NShTT=   40186 NPrTT=  117816 LenC2=   37648 LenP2D=   81780.
 LDataN:  DoStor=T MaxTD1= 6 Len=  172
 NBasis=   671 RedAO= T EigKep=  7.69D-06  NBF=   671
 NBsUse=   671 1.00D-06 EigRej= -1.00D+00 NBFU=   671
 Precomputing XC quadrature grid using
 IXCGrd= 4 IRadAn=           5 IRanWt=          -1 IRanGd=           0 AccXCQ= 0.00D+00.
 Generated NRdTot=       0 NPtTot=           0 NUsed=           0 NTot=          32
 NSgBfM=   750   750   750   750   750 MxSgAt=    41 MxSgA2=    41.
 Leave Link  302 at Tue Jan  7 16:43:11 2025, MaxMem=  4026531840 cpu:              23.5 elap:               1.2
 (Enter /usr/local/intel/g16/l303.exe)
 DipDrv:  MaxL=1.
 Leave Link  303 at Tue Jan  7 16:43:11 2025, MaxMem=  4026531840 cpu:               3.7 elap:               0.2
 (Enter /usr/local/intel/g16/l401.exe)
 ExpMin= 9.52D-02 ExpMax= 2.70D+04 ExpMxC= 9.22D+02 IAcc=3 IRadAn=         5 AccDes= 0.00D+00
 Harris functional with IExCor= 1009 and IRadAn=       5 diagonalized for initial guess.
 HarFok:  IExCor= 1009 AccDes= 0.00D+00 IRadAn=         5 IDoV= 1 UseB2=F ITyADJ=14
 ICtDFT=  3500011 ScaDFX=  1.000000  1.000000  1.000000  1.000000
 FoFCou: FMM=F IPFlag=           0 FMFlag=      100000 FMFlg1=           0
         NFxFlg=           0 DoJE=T BraDBF=F KetDBF=T FulRan=T
         wScrn=  0.000000 ICntrl=       500 IOpCl=  0 I1Cent=   200000004 NGrid=           0
         NMat0=    1 NMatS0=      1 NMatT0=    0 NMatD0=    1 NMtDS0=    0 NMtDT0=    0
 Petite list used in FoFCou.
 Harris En= -715.664528841568    
 JPrj=0 DoOrth=F DoCkMO=F.
 Initial guess <Sx>= 0.0000 <Sy>= 0.0000 <Sz>= 0.5000 <S**2>= 0.7500 S= 0.5000
 Leave Link  401 at Tue Jan  7 16:43:15 2025, MaxMem=  4026531840 cpu:              82.4 elap:               4.1
 (Enter /usr/local/intel/g16/l502.exe)
 Integral symmetry usage will be decided dynamically.
 UHF open shell SCF:
 Using DIIS extrapolation, IDIIS=  1040.
 NGot=  4026531840 LenX=  4025365778 LenY=  4024793486
 Requested convergence on RMS density matrix=1.00D-08 within 128 cycles.
 Requested convergence on MAX density matrix=1.00D-06.
 Requested convergence on             energy=1.00D-06.
 No special actions if energy rises.
 Fock matrices will be formed incrementally for  20 cycles.
 Integral accuracy reduced to 1.0D-05 until final iterations.

 Cycle   1  Pass 0  IDiag  1:
 FoFJK:  IHMeth= 1 ICntrl=       0 DoSepK=F KAlg= 0 I1Cent=           0 FoldK=F
 IRaf= 880000000 NMat=       1 IRICut=       1 DoRegI=T DoRafI=F ISym2E= 0 IDoP0=0 IntGTp=1.
 FoFCou: FMM=F IPFlag=           0 FMFlag=      100000 FMFlg1=           0
         NFxFlg=           0 DoJE=F BraDBF=F KetDBF=F FulRan=T
         wScrn=  0.000000 ICntrl=         0 IOpCl=  1 I1Cent=           0 NGrid=           0
         NMat0=    1 NMatS0=      1 NMatT0=    0 NMatD0=    1 NMtDS0=    0 NMtDT0=    0
 Symmetry not used in FoFCou.
 E= -715.289323308483    
 DIIS: error= 2.58D-02 at cycle   1 NSaved=   1.
 NSaved= 1 IEnMin= 1 EnMin= -715.289323308483     IErMin= 1 ErrMin= 2.58D-02
 ErrMax= 2.58D-02  0.00D+00 EMaxC= 1.00D-01 BMatC= 2.77D+00 BMatP= 2.77D+00
 IDIUse=3 WtCom= 7.42D-01 WtEn= 2.58D-01
 Coeff-Com:  0.100D+01
 Coeff-En:   0.100D+01
 Coeff:      0.100D+01
 Gap=     0.374 Goal=   None    Shift=    0.000
 Gap=     0.221 Goal=   None    Shift=    0.000
 GapD=    0.221 DampG=1.000 DampE=0.500 DampFc=0.5000 IDamp=-1.
 Damping current iteration by 5.00D-01
 RMSDP=2.41D-03 MaxDP=1.48D-01              OVMax= 1.64D-01

 Cycle   2  Pass 0  IDiag  1:
 RMSU=  1.19D-03    CP:  9.70D-01
 E= -715.593270832273     Delta-E=       -0.303947523790 Rises=F Damp=T
 DIIS: error= 4.62D-03 at cycle   2 NSaved=   2.
 NSaved= 2 IEnMin= 2 EnMin= -715.593270832273     IErMin= 2 ErrMin= 4.62D-03
 ErrMax= 4.62D-03  0.00D+00 EMaxC= 1.00D-01 BMatC= 2.05D-01 BMatP= 2.77D+00
 IDIUse=3 WtCom= 9.54D-01 WtEn= 4.62D-02
 Coeff-Com: -0.574D-01 0.106D+01
 Coeff-En:   0.000D+00 0.100D+01
 Coeff:     -0.547D-01 0.105D+01
 Gap=     0.335 Goal=   None    Shift=    0.000
 Gap=     0.285 Goal=   None    Shift=    0.000
 RMSDP=1.12D-03 MaxDP=1.40D-01 DE=-3.04D-01 OVMax= 1.22D-01

 Cycle   3  Pass 0  IDiag  1:
 RMSU=  1.04D-03    CP:  9.52D-01  1.34D+00
 E= -715.876299644101     Delta-E=       -0.283028811828 Rises=F Damp=F
 DIIS: error= 5.17D-03 at cycle   3 NSaved=   3.
 NSaved= 3 IEnMin= 3 EnMin= -715.876299644101     IErMin= 2 ErrMin= 4.62D-03
 ErrMax= 5.17D-03  0.00D+00 EMaxC= 1.00D-01 BMatC= 1.24D-01 BMatP= 2.05D-01
 IDIUse=3 WtCom= 9.48D-01 WtEn= 5.17D-02
 Coeff-Com: -0.797D-01 0.480D+00 0.600D+00
 Coeff-En:   0.000D+00 0.000D+00 0.100D+01
 Coeff:     -0.756D-01 0.455D+00 0.620D+00
 Gap=     0.281 Goal=   None    Shift=    0.000
 Gap=     0.278 Goal=   None    Shift=    0.000
 RMSDP=3.50D-04 MaxDP=2.15D-02 DE=-2.83D-01 OVMax= 8.06D-02

 Cycle   4  Pass 0  IDiag  1:
 RMSU=  3.31D-04    CP:  9.54D-01  1.42D+00  9.47D-01
 E= -715.893145832410     Delta-E=       -0.016846188309 Rises=F Damp=F
 DIIS: error= 2.55D-03 at cycle   4 NSaved=   4.
 NSaved= 4 IEnMin= 4 EnMin= -715.893145832410     IErMin= 4 ErrMin= 2.55D-03
 ErrMax= 2.55D-03  0.00D+00 EMaxC= 1.00D-01 BMatC= 3.70D-02 BMatP= 1.24D-01
 IDIUse=3 WtCom= 9.74D-01 WtEn= 2.55D-02
 Coeff-Com: -0.278D-01 0.850D-01 0.373D+00 0.569D+00
 Coeff-En:   0.000D+00 0.000D+00 0.239D+00 0.761D+00
 Coeff:     -0.271D-01 0.828D-01 0.370D+00 0.574D+00
 Gap=     0.279 Goal=   None    Shift=    0.000
 Gap=     0.282 Goal=   None    Shift=    0.000
 RMSDP=1.75D-04 MaxDP=2.42D-02 DE=-1.68D-02 OVMax= 2.05D-02

 Cycle   5  Pass 0  IDiag  1:
 RMSU=  1.30D-04    CP:  9.50D-01  1.40D+00  9.72D-01  6.76D-01
 E= -715.899954430178     Delta-E=       -0.006808597768 Rises=F Damp=F
 DIIS: error= 4.91D-04 at cycle   5 NSaved=   5.
 NSaved= 5 IEnMin= 5 EnMin= -715.899954430178     IErMin= 5 ErrMin= 4.91D-04
 ErrMax= 4.91D-04  0.00D+00 EMaxC= 1.00D-01 BMatC= 7.61D-04 BMatP= 3.70D-02
 IDIUse=3 WtCom= 9.95D-01 WtEn= 4.91D-03
 Coeff-Com: -0.604D-02 0.954D-02 0.120D+00 0.215D+00 0.661D+00
 Coeff-En:   0.000D+00 0.000D+00 0.000D+00 0.000D+00 0.100D+01
 Coeff:     -0.601D-02 0.949D-02 0.120D+00 0.214D+00 0.663D+00
 Gap=     0.275 Goal=   None    Shift=    0.000
 Gap=     0.284 Goal=   None    Shift=    0.000
 RMSDP=4.47D-05 MaxDP=6.56D-03 DE=-6.81D-03 OVMax= 8.28D-03

 Cycle   6  Pass 0  IDiag  1:
 RMSU=  4.01D-05    CP:  9.51D-01  1.40D+00  9.86D-01  7.12D-01  9.67D-01
 E= -715.900151451674     Delta-E=       -0.000197021496 Rises=F Damp=F
 DIIS: error= 1.42D-04 at cycle   6 NSaved=   6.
 NSaved= 6 IEnMin= 6 EnMin= -715.900151451674     IErMin= 6 ErrMin= 1.42D-04
 ErrMax= 1.42D-04  0.00D+00 EMaxC= 1.00D-01 BMatC= 1.54D-04 BMatP= 7.61D-04
 IDIUse=3 WtCom= 9.99D-01 WtEn= 1.42D-03
 Coeff-Com:  0.237D-02-0.935D-02-0.380D-02-0.100D-01 0.256D+00 0.765D+00
 Coeff-En:   0.000D+00 0.000D+00 0.000D+00 0.000D+00 0.000D+00 0.100D+01
 Coeff:      0.236D-02-0.934D-02-0.380D-02-0.100D-01 0.255D+00 0.766D+00
 Gap=     0.277 Goal=   None    Shift=    0.000
 Gap=     0.283 Goal=   None    Shift=    0.000
 RMSDP=4.00D-05 MaxDP=3.59D-03 DE=-1.97D-04 OVMax= 3.24D-03

 Cycle   7  Pass 0  IDiag  1:
 RMSU=  2.61D-05    CP:  9.50D-01  1.40D+00  9.94D-01  7.13D-01  1.16D+00
                    CP:  1.35D+00
 E= -715.900202780130     Delta-E=       -0.000051328456 Rises=F Damp=F
 DIIS: error= 7.48D-05 at cycle   7 NSaved=   7.
 NSaved= 7 IEnMin= 7 EnMin= -715.900202780130     IErMin= 7 ErrMin= 7.48D-05
 ErrMax= 7.48D-05  0.00D+00 EMaxC= 1.00D-01 BMatC= 2.85D-05 BMatP= 1.54D-04
 IDIUse=1 WtCom= 1.00D+00 WtEn= 0.00D+00
 Coeff-Com:  0.213D-02-0.503D-02-0.222D-01-0.531D-01-0.498D-01 0.211D+00
 Coeff-Com:  0.917D+00
 Coeff:      0.213D-02-0.503D-02-0.222D-01-0.531D-01-0.498D-01 0.211D+00
 Coeff:      0.917D+00
 Gap=     0.277 Goal=   None    Shift=    0.000
 Gap=     0.284 Goal=   None    Shift=    0.000
 RMSDP=3.83D-05 MaxDP=2.39D-03 DE=-5.13D-05 OVMax= 2.85D-03

 Cycle   8  Pass 0  IDiag  1:
 RMSU=  1.47D-05    CP:  9.51D-01  1.40D+00  1.00D+00  7.19D-01  1.28D+00
                    CP:  1.83D+00  1.87D+00
 E= -715.900214459196     Delta-E=       -0.000011679066 Rises=F Damp=F
 DIIS: error= 6.52D-05 at cycle   8 NSaved=   8.
 NSaved= 8 IEnMin= 8 EnMin= -715.900214459196     IErMin= 8 ErrMin= 6.52D-05
 ErrMax= 6.52D-05  0.00D+00 EMaxC= 1.00D-01 BMatC= 1.06D-05 BMatP= 2.85D-05
 IDIUse=1 WtCom= 1.00D+00 WtEn= 0.00D+00
 Coeff-Com:  0.721D-03-0.931D-03-0.971D-02-0.286D-01-0.707D-01-0.391D-01
 Coeff-Com:  0.491D+00 0.657D+00
 Coeff:      0.721D-03-0.931D-03-0.971D-02-0.286D-01-0.707D-01-0.391D-01
 Coeff:      0.491D+00 0.657D+00
 Gap=     0.277 Goal=   None    Shift=    0.000
 Gap=     0.284 Goal=   None    Shift=    0.000
 RMSDP=2.61D-05 MaxDP=1.91D-03 DE=-1.17D-05 OVMax= 1.24D-03

 Cycle   9  Pass 0  IDiag  1:
 RMSU=  1.10D-05    CP:  9.51D-01  1.40D+00  1.01D+00  7.15D-01  1.34D+00
                    CP:  2.04D+00  2.55D+00  1.68D+00
 E= -715.900216584010     Delta-E=       -0.000002124814 Rises=F Damp=F
 DIIS: error= 2.20D-05 at cycle   9 NSaved=   9.
 NSaved= 9 IEnMin= 9 EnMin= -715.900216584010     IErMin= 9 ErrMin= 2.20D-05
 ErrMax= 2.20D-05  0.00D+00 EMaxC= 1.00D-01 BMatC= 1.68D-06 BMatP= 1.06D-05
 IDIUse=1 WtCom= 1.00D+00 WtEn= 0.00D+00
 Coeff-Com: -0.320D-03 0.919D-03 0.437D-02 0.567D-02 0.326D-02-0.616D-01
 Coeff-Com: -0.144D+00 0.143D+00 0.105D+01
 Coeff:     -0.320D-03 0.919D-03 0.437D-02 0.567D-02 0.326D-02-0.616D-01
 Coeff:     -0.144D+00 0.143D+00 0.105D+01
 Gap=     0.277 Goal=   None    Shift=    0.000
 Gap=     0.284 Goal=   None    Shift=    0.000
 RMSDP=4.48D-05 MaxDP=2.26D-03 DE=-2.12D-06 OVMax= 7.77D-04

 Cycle  10  Pass 0  IDiag  1:
 RMSU=  2.02D-05    CP:  9.51D-01  1.41D+00  1.02D+00  7.17D-01  1.39D+00
                    CP:  2.36D+00  3.00D+00  3.00D+00  2.73D+00
 E= -715.900216878052     Delta-E=       -0.000000294042 Rises=F Damp=F
 DIIS: error= 2.81D-05 at cycle  10 NSaved=  10.
 NSaved=10 IEnMin=10 EnMin= -715.900216878052     IErMin= 9 ErrMin= 2.20D-05
 ErrMax= 2.81D-05  0.00D+00 EMaxC= 1.00D-01 BMatC= 8.48D-07 BMatP= 1.68D-06
 IDIUse=1 WtCom= 1.00D+00 WtEn= 0.00D+00
 Coeff-Com: -0.208D-03 0.562D-03 0.316D-02 0.438D-02 0.520D-02-0.380D-01
 Coeff-Com: -0.111D+00 0.686D-01 0.662D+00 0.406D+00
 Coeff:     -0.208D-03 0.562D-03 0.316D-02 0.438D-02 0.520D-02-0.380D-01
 Coeff:     -0.111D+00 0.686D-01 0.662D+00 0.406D+00
 Gap=     0.277 Goal=   None    Shift=    0.000
 Gap=     0.284 Goal=   None    Shift=    0.000
 RMSDP=2.63D-05 MaxDP=1.31D-03 DE=-2.94D-07 OVMax= 1.07D-04

 Cycle  11  Pass 0  IDiag  1:
 RMSU=  1.48D-05    CP:  9.51D-01  1.41D+00  1.02D+00  7.22D-01  1.43D+00
                    CP:  2.53D+00  3.00D+00  3.00D+00  3.00D+00  1.88D+00
 E= -715.900217983072     Delta-E=       -0.000001105021 Rises=F Damp=F
 DIIS: error= 3.21D-05 at cycle  11 NSaved=  11.
 NSaved=11 IEnMin=11 EnMin= -715.900217983072     IErMin= 9 ErrMin= 2.20D-05
 ErrMax= 3.21D-05  0.00D+00 EMaxC= 1.00D-01 BMatC= 1.04D-06 BMatP= 8.48D-07
 IDIUse=1 WtCom= 1.00D+00 WtEn= 0.00D+00
 Coeff-Com: -0.348D-03 0.830D-03 0.525D-02 0.883D-02 0.144D-01-0.471D-01
 Coeff-Com: -0.202D+00 0.217D-01 0.890D+00 0.168D+01-0.137D+01
 Coeff:     -0.348D-03 0.830D-03 0.525D-02 0.883D-02 0.144D-01-0.471D-01
 Coeff:     -0.202D+00 0.217D-01 0.890D+00 0.168D+01-0.137D+01
 Gap=     0.277 Goal=   None    Shift=    0.000
 Gap=     0.284 Goal=   None    Shift=    0.000
 RMSDP=5.49D-05 MaxDP=2.95D-03 DE=-1.11D-06 OVMax= 4.33D-05

 Cycle  12  Pass 0  IDiag  1:
 RMSU=  1.15D-05    CP:  9.51D-01  1.40D+00  1.01D+00  7.07D-01  1.36D+00
                    CP:  2.19D+00  2.96D+00  2.16D+00  2.08D+00  1.40D-01
                    CP: -3.02D-01
 E= -715.900215720188     Delta-E=        0.000002262884 Rises=F Damp=F
 DIIS: error= 2.18D-05 at cycle  12 NSaved=  12.
 NSaved=12 IEnMin=11 EnMin= -715.900217983072     IErMin=12 ErrMin= 2.18D-05
 ErrMax= 2.18D-05  0.00D+00 EMaxC= 1.00D-01 BMatC= 4.90D-07 BMatP= 8.48D-07
 IDIUse=1 WtCom= 1.00D+00 WtEn= 0.00D+00
 Coeff-Com: -0.644D-04 0.964D-04 0.186D-02 0.362D-02 0.105D-01-0.213D-02
 Coeff-Com: -0.786D-01-0.640D-01 0.727D-01 0.145D+01-0.201D+01 0.162D+01
 Coeff:     -0.644D-04 0.964D-04 0.186D-02 0.362D-02 0.105D-01-0.213D-02
 Coeff:     -0.786D-01-0.640D-01 0.727D-01 0.145D+01-0.201D+01 0.162D+01
 Gap=     0.277 Goal=   None    Shift=    0.000
 Gap=     0.284 Goal=   None    Shift=    0.000
 RMSDP=4.55D-05 MaxDP=3.15D-03 DE= 2.26D-06 OVMax= 1.51D-04

 Cycle  13  Pass 0  IDiag  1:
 RMSU=  1.67D-05    CP:  9.50D-01  1.40D+00  1.00D+00  6.98D-01  1.33D+00
                    CP:  1.98D+00  1.91D+00  6.32D-01  5.88D-01 -7.33D-02
                    CP: -4.21D-01  1.77D+00
 E= -715.900218542898     Delta-E=       -0.000002822710 Rises=F Damp=F
 DIIS: error= 1.64D-05 at cycle  13 NSaved=  13.
 NSaved=13 IEnMin=13 EnMin= -715.900218542898     IErMin=13 ErrMin= 1.64D-05
 ErrMax= 1.64D-05  0.00D+00 EMaxC= 1.00D-01 BMatC= 2.08D-07 BMatP= 4.90D-07
 IDIUse=1 WtCom= 1.00D+00 WtEn= 0.00D+00
 Coeff-Com: -0.353D-04 0.562D-04 0.111D-02 0.204D-02 0.614D-02-0.144D-02
 Coeff-Com: -0.444D-01-0.347D-01 0.372D-01 0.779D+00-0.118D+01 0.842D+00
 Coeff-Com:  0.595D+00
 Coeff:     -0.353D-04 0.562D-04 0.111D-02 0.204D-02 0.614D-02-0.144D-02
 Coeff:     -0.444D-01-0.347D-01 0.372D-01 0.779D+00-0.118D+01 0.842D+00
 Coeff:      0.595D+00
 Gap=     0.277 Goal=   None    Shift=    0.000
 Gap=     0.284 Goal=   None    Shift=    0.000
 RMSDP=1.63D-05 MaxDP=1.08D-03 DE=-2.82D-06 OVMax= 4.58D-05

 Cycle  14  Pass 0  IDiag  1:
 RMSU=  1.05D-05    CP:  9.50D-01  1.40D+00  1.01D+00  7.03D-01  1.34D+00
                    CP:  2.05D+00  2.07D+00  7.13D-01  1.40D-02 -8.05D-02
                    CP: -2.42D-01  1.16D+00  1.19D+00
 E= -715.900221289781     Delta-E=       -0.000002746882 Rises=F Damp=F
 DIIS: error= 1.42D-05 at cycle  14 NSaved=  14.
 NSaved=14 IEnMin=14 EnMin= -715.900221289781     IErMin=14 ErrMin= 1.42D-05
 ErrMax= 1.42D-05  0.00D+00 EMaxC= 1.00D-01 BMatC= 1.44D-07 BMatP= 2.08D-07
 IDIUse=1 WtCom= 1.00D+00 WtEn= 0.00D+00
 Coeff-Com: -0.471D-04 0.860D-04 0.107D-02 0.199D-02 0.536D-02-0.319D-02
 Coeff-Com: -0.438D-01-0.249D-01 0.769D-01 0.563D+00-0.745D+00 0.393D+00
 Coeff-Com:  0.106D+00 0.669D+00
 Coeff:     -0.471D-04 0.860D-04 0.107D-02 0.199D-02 0.536D-02-0.319D-02
 Coeff:     -0.438D-01-0.249D-01 0.769D-01 0.563D+00-0.745D+00 0.393D+00
 Coeff:      0.106D+00 0.669D+00
 Gap=     0.277 Goal=   None    Shift=    0.000
 Gap=     0.284 Goal=   None    Shift=    0.000
 RMSDP=1.44D-05 MaxDP=1.29D-03 DE=-2.75D-06 OVMax= 2.68D-05

 Cycle  15  Pass 0  IDiag  1:
 RMSU=  6.14D-06    CP:  9.50D-01  1.40D+00  1.01D+00  7.08D-01  1.34D+00
                    CP:  2.15D+00  2.37D+00  1.07D+00  1.36D-01 -1.26D-01
                    CP: -1.35D-01  7.92D-01  1.30D+00  1.49D+00
 E= -715.900220007054     Delta-E=        0.000001282727 Rises=F Damp=F
 DIIS: error= 1.28D-05 at cycle  15 NSaved=  15.
 NSaved=15 IEnMin=14 EnMin= -715.900221289781     IErMin=15 ErrMin= 1.28D-05
 ErrMax= 1.28D-05  0.00D+00 EMaxC= 1.00D-01 BMatC= 1.47D-07 BMatP= 1.44D-07
 IDIUse=1 WtCom= 1.00D+00 WtEn= 0.00D+00
 Coeff-Com: -0.386D-04 0.680D-04 0.935D-03 0.174D-02 0.489D-02-0.229D-02
 Coeff-Com: -0.386D-01-0.241D-01 0.603D-01 0.509D+00-0.652D+00 0.365D+00
 Coeff-Com:  0.271D-01 0.494D+00 0.253D+00
 Coeff:     -0.386D-04 0.680D-04 0.935D-03 0.174D-02 0.489D-02-0.229D-02
 Coeff:     -0.386D-01-0.241D-01 0.603D-01 0.509D+00-0.652D+00 0.365D+00
 Coeff:      0.271D-01 0.494D+00 0.253D+00
 Gap=     0.277 Goal=   None    Shift=    0.000
 Gap=     0.284 Goal=   None    Shift=    0.000
 RMSDP=6.87D-06 MaxDP=4.45D-04 DE= 1.28D-06 OVMax= 8.32D-06

 Initial convergence to 1.0D-05 achieved.  Increase integral accuracy.
 Cycle  16  Pass 1  IDiag  1:
 E= -715.900187025765     Delta-E=        0.000032981288 Rises=F Damp=F
 DIIS: error= 5.95D-04 at cycle   1 NSaved=   1.
 NSaved= 1 IEnMin= 1 EnMin= -715.900187025765     IErMin= 1 ErrMin= 5.95D-04
 ErrMax= 5.95D-04  0.00D+00 EMaxC= 1.00D-01 BMatC= 1.55D-04 BMatP= 1.55D-04
 IDIUse=3 WtCom= 9.94D-01 WtEn= 5.95D-03
 Coeff-Com:  0.100D+01
 Coeff-En:   0.100D+01
 Coeff:      0.100D+01
 Gap=     0.277 Goal=   None    Shift=    0.000
 Gap=     0.284 Goal=   None    Shift=    0.000
 RMSDP=6.87D-06 MaxDP=4.45D-04 DE= 3.30D-05 OVMax= 6.48D-04

 Cycle  17  Pass 1  IDiag  1:
 RMSU=  8.69D-04    CP:  9.76D-01
 E= -715.900208002997     Delta-E=       -0.000020977232 Rises=F Damp=F
 DIIS: error= 1.16D-05 at cycle   2 NSaved=   2.
 NSaved= 2 IEnMin= 2 EnMin= -715.900208002997     IErMin= 2 ErrMin= 1.16D-05
 ErrMax= 1.16D-05  0.00D+00 EMaxC= 1.00D-01 BMatC= 9.45D-08 BMatP= 1.55D-04
 IDIUse=1 WtCom= 1.00D+00 WtEn= 0.00D+00
 Coeff-Com: -0.149D-01 0.101D+01
 Coeff:     -0.149D-01 0.101D+01
 Gap=     0.277 Goal=   None    Shift=    0.000
 Gap=     0.284 Goal=   None    Shift=    0.000
 RMSDP=2.72D-05 MaxDP=1.40D-03 DE=-2.10D-05 OVMax= 6.54D-05

 Cycle  18  Pass 1  IDiag  1:
 RMSU=  1.43D-05    CP:  9.75D-01  1.03D+00
 E= -715.900208027515     Delta-E=       -0.000000024518 Rises=F Damp=F
 DIIS: error= 2.45D-06 at cycle   3 NSaved=   3.
 NSaved= 3 IEnMin= 3 EnMin= -715.900208027515     IErMin= 3 ErrMin= 2.45D-06
 ErrMax= 2.45D-06  0.00D+00 EMaxC= 1.00D-01 BMatC= 3.95D-08 BMatP= 9.45D-08
 IDIUse=1 WtCom= 1.00D+00 WtEn= 0.00D+00
 Coeff-Com: -0.664D-02 0.431D+00 0.575D+00
 Coeff:     -0.664D-02 0.431D+00 0.575D+00
 Gap=     0.277 Goal=   None    Shift=    0.000
 Gap=     0.284 Goal=   None    Shift=    0.000
 RMSDP=5.97D-07 MaxDP=3.11D-05 DE=-2.45D-08 OVMax= 2.69D-05

 Cycle  19  Pass 1  IDiag  1:
 RMSU=  3.25D-07    CP:  9.75D-01  1.03D+00  1.02D+00
 E= -715.900208034451     Delta-E=       -0.000000006936 Rises=F Damp=F
 DIIS: error= 1.55D-06 at cycle   4 NSaved=   4.
 NSaved= 4 IEnMin= 4 EnMin= -715.900208034451     IErMin= 4 ErrMin= 1.55D-06
 ErrMax= 1.55D-06  0.00D+00 EMaxC= 1.00D-01 BMatC= 8.59D-09 BMatP= 3.95D-08
 IDIUse=1 WtCom= 1.00D+00 WtEn= 0.00D+00
 Coeff-Com: -0.268D-03 0.651D-02 0.304D+00 0.690D+00
 Coeff:     -0.268D-03 0.651D-02 0.304D+00 0.690D+00
 Gap=     0.277 Goal=   None    Shift=    0.000
 Gap=     0.284 Goal=   None    Shift=    0.000
 RMSDP=3.98D-07 MaxDP=2.47D-05 DE=-6.94D-09 OVMax= 2.65D-05

 Cycle  20  Pass 1  IDiag  1:
 RMSU=  1.46D-07    CP:  9.75D-01  1.03D+00  1.04D+00  1.10D+00
 E= -715.900208036412     Delta-E=       -0.000000001960 Rises=F Damp=F
 DIIS: error= 5.85D-07 at cycle   5 NSaved=   5.
 NSaved= 5 IEnMin= 5 EnMin= -715.900208036412     IErMin= 5 ErrMin= 5.85D-07
 ErrMax= 5.85D-07  0.00D+00 EMaxC= 1.00D-01 BMatC= 1.46D-09 BMatP= 8.59D-09
 IDIUse=1 WtCom= 1.00D+00 WtEn= 0.00D+00
 Coeff-Com:  0.507D-03-0.382D-01 0.902D-01 0.376D+00 0.572D+00
 Coeff:      0.507D-03-0.382D-01 0.902D-01 0.376D+00 0.572D+00
 Gap=     0.277 Goal=   None    Shift=    0.000
 Gap=     0.284 Goal=   None    Shift=    0.000
 RMSDP=6.95D-08 MaxDP=2.53D-06 DE=-1.96D-09 OVMax= 5.73D-06

 Cycle  21  Pass 1  IDiag  1:
 RMSU=  3.77D-08    CP:  9.75D-01  1.03D+00  1.04D+00  1.16D+00  1.11D+00
 E= -715.900208036797     Delta-E=       -0.000000000385 Rises=F Damp=F
 DIIS: error= 1.93D-07 at cycle   6 NSaved=   6.
 NSaved= 6 IEnMin= 6 EnMin= -715.900208036797     IErMin= 6 ErrMin= 1.93D-07
 ErrMax= 1.93D-07  0.00D+00 EMaxC= 1.00D-01 BMatC= 1.48D-10 BMatP= 1.46D-09
 IDIUse=1 WtCom= 1.00D+00 WtEn= 0.00D+00
 Coeff-Com:  0.919D-04-0.410D-02-0.690D-01-0.791D-01-0.460D-01 0.120D+01
 Coeff:      0.919D-04-0.410D-02-0.690D-01-0.791D-01-0.460D-01 0.120D+01
 Gap=     0.277 Goal=   None    Shift=    0.000
 Gap=     0.284 Goal=   None    Shift=    0.000
 RMSDP=4.11D-08 MaxDP=2.81D-06 DE=-3.85D-10 OVMax= 8.33D-06

 Cycle  22  Pass 1  IDiag  1:
 RMSU=  2.81D-08    CP:  9.75D-01  1.03D+00  1.04D+00  1.21D+00  1.17D+00
                    CP:  1.57D+00
 E= -715.900208036945     Delta-E=       -0.000000000148 Rises=F Damp=F
 DIIS: error= 1.74D-07 at cycle   7 NSaved=   7.
 NSaved= 7 IEnMin= 7 EnMin= -715.900208036945     IErMin= 7 ErrMin= 1.74D-07
 ErrMax= 1.74D-07  0.00D+00 EMaxC= 1.00D-01 BMatC= 8.43D-11 BMatP= 1.48D-10
 IDIUse=1 WtCom= 1.00D+00 WtEn= 0.00D+00
 Coeff-Com: -0.120D-03 0.106D-01-0.726D-01-0.159D+00-0.244D+00 0.689D+00
 Coeff-Com:  0.777D+00
 Coeff:     -0.120D-03 0.106D-01-0.726D-01-0.159D+00-0.244D+00 0.689D+00
 Coeff:      0.777D+00
 Gap=     0.277 Goal=   None    Shift=    0.000
 Gap=     0.284 Goal=   None    Shift=    0.000
 RMSDP=2.59D-08 MaxDP=1.71D-06 DE=-1.48D-10 OVMax= 5.73D-06

 Cycle  23  Pass 1  IDiag  1:
 RMSU=  1.08D-08    CP:  9.75D-01  1.03D+00  1.04D+00  1.23D+00  1.17D+00
                    CP:  1.97D+00  1.46D+00
 E= -715.900208036993     Delta-E=       -0.000000000049 Rises=F Damp=F
 DIIS: error= 6.32D-08 at cycle   8 NSaved=   8.
 NSaved= 8 IEnMin= 8 EnMin= -715.900208036993     IErMin= 8 ErrMin= 6.32D-08
 ErrMax= 6.32D-08  0.00D+00 EMaxC= 1.00D-01 BMatC= 9.37D-12 BMatP= 8.43D-11
 IDIUse=1 WtCom= 1.00D+00 WtEn= 0.00D+00
 Coeff-Com: -0.557D-04 0.410D-02-0.891D-02-0.285D-01-0.730D-01-0.185D-01
 Coeff-Com:  0.228D+00 0.896D+00
 Coeff:     -0.557D-04 0.410D-02-0.891D-02-0.285D-01-0.730D-01-0.185D-01
 Coeff:      0.228D+00 0.896D+00
 Gap=     0.277 Goal=   None    Shift=    0.000
 Gap=     0.284 Goal=   None    Shift=    0.000
 RMSDP=1.04D-08 MaxDP=8.66D-07 DE=-4.87D-11 OVMax= 2.95D-06

 Cycle  24  Pass 1  IDiag  1:
 RMSU=  6.38D-09    CP:  9.75D-01  1.03D+00  1.04D+00  1.23D+00  1.15D+00
                    CP:  2.05D+00  1.67D+00  1.32D+00
 E= -715.900208037011     Delta-E=       -0.000000000017 Rises=F Damp=F
 DIIS: error= 3.18D-08 at cycle   9 NSaved=   9.
 NSaved= 9 IEnMin= 9 EnMin= -715.900208037011     IErMin= 9 ErrMin= 3.18D-08
 ErrMax= 3.18D-08  0.00D+00 EMaxC= 1.00D-01 BMatC= 2.99D-12 BMatP= 9.37D-12
 IDIUse=1 WtCom= 1.00D+00 WtEn= 0.00D+00
 Coeff-Com:  0.647D-05-0.931D-03 0.144D-01 0.281D-01 0.290D-01-0.180D+00
 Coeff-Com: -0.105D+00 0.377D+00 0.837D+00
 Coeff:      0.647D-05-0.931D-03 0.144D-01 0.281D-01 0.290D-01-0.180D+00
 Coeff:     -0.105D+00 0.377D+00 0.837D+00
 Gap=     0.277 Goal=   None    Shift=    0.000
 Gap=     0.284 Goal=   None    Shift=    0.000
 RMSDP=6.29D-09 MaxDP=4.88D-07 DE=-1.71D-11 OVMax= 1.76D-06

 SCF Done:  E(UM062X) =  -715.900208037     A.U. after   24 cycles
            NFock= 24  Conv=0.63D-08     -V/T= 2.0061
 <Sx>= 0.0000 <Sy>= 0.0000 <Sz>= 0.5000 <S**2>= 0.7561 S= 0.5030
 <L.S>=  0.00000000000    
 KE= 7.115672665343D+02 PE=-4.307298844139D+03 EE= 1.557168352826D+03
 Annihilation of the first spin contaminant:
 S**2 before annihilation     0.7561,   after     0.7500
 Leave Link  502 at Tue Jan  7 16:58:04 2025, MaxMem=  4026531840 cpu:           17775.1 elap:             889.1
 (Enter /usr/local/intel/g16/l601.exe)
 Copying SCF densities to generalized density rwf, IOpCl= 1 IROHF=0.

 **********************************************************************

            Population analysis using the SCF Density.

 **********************************************************************

 Orbital symmetries:
 Alpha Orbitals:
       Occupied  (A) (A) (A) (A) (A) (A) (A) (A) (A) (A) (A) (A)
                 (A) (A) (A) (A) (A) (A) (A) (A) (A) (A) (A) (A)
                 (A) (A) (A) (A) (A) (A) (A) (A) (A) (A) (A) (A)
                 (A) (A) (A) (A) (A) (A) (A) (A) (A) (A) (A) (A)
                 (A) (A) (A) (A) (A) (A) (A) (A) (A) (A) (A) (A)
                 (A) (A) (A) (A) (A)
       Virtual   (A) (A) (A) (A) (A) (A) (A) (A) (A) (A) (A) (A)
                 (A) (A) (A) (A) (A) (A) (A) (A) (A) (A) (A) (A)
                 (A) (A) (A) (A) (A) (A) (A) (A) (A) (A) (A) (A)
                 (A) (A) (A) (A) (A) (A) (A) (A) (A) (A) (A) (A)
                 (A) (A) (A) (A) (A) (A) (A) (A) (A) (A) (A) (A)
                 (A) (A) (A) (A) (A) (A) (A) (A) (A) (A) (A) (A)
                 (A) (A) (A) (A) (A) (A) (A) (A) (A) (A) (A) (A)
                 (A) (A) (A) (A) (A) (A) (A) (A) (A) (A) (A) (A)
                 (A) (A) (A) (A) (A) (A) (A) (A) (A) (A) (A) (A)
                 (A) (A) (A) (A) (A) (A) (A) (A) (A) (A) (A) (A)
                 (A) (A) (A) (A) (A) (A) (A) (A) (A) (A) (A) (A)
                 (A) (A) (A) (A) (A) (A) (A) (A) (A) (A) (A) (A)
                 (A) (A) (A) (A) (A) (A) (A) (A) (A) (A) (A) (A)
                 (A) (A) (A) (A) (A) (A) (A) (A) (A) (A) (A) (A)
                 (A) (A) (A) (A) (A) (A) (A) (A) (A) (A) (A) (A)
                 (A) (A) (A) (A) (A) (A) (A) (A) (A) (A) (A) (A)
                 (A) (A) (A) (A) (A) (A) (A) (A) (A) (A) (A) (A)
                 (A) (A) (A) (A) (A) (A) (A) (A) (A) (A) (A) (A)
                 (A) (A) (A) (A) (A) (A) (A) (A) (A) (A) (A) (A)
                 (A) (A) (A) (A) (A) (A) (A) (A) (A) (A) (A) (A)
                 (A) (A) (A) (A) (A) (A) (A) (A) (A) (A) (A) (A)
                 (A) (A) (A) (A) (A) (A) (A) (A) (A) (A) (A) (A)
                 (A) (A) (A) (A) (A) (A) (A) (A) (A) (A) (A) (A)
                 (A) (A) (A) (A) (A) (A) (A) (A) (A) (A) (A) (A)
                 (A) (A) (A) (A) (A) (A) (A) (A) (A) (A) (A) (A)
                 (A) (A) (A) (A) (A) (A) (A) (A) (A) (A) (A) (A)
                 (A) (A) (A) (A) (A) (A) (A) (A) (A) (A) (A) (A)
                 (A) (A) (A) (A) (A) (A) (A) (A) (A) (A) (A) (A)
                 (A) (A) (A) (A) (A) (A) (A) (A) (A) (A) (A) (A)
                 (A) (A) (A) (A) (A) (A) (A) (A) (A) (A) (A) (A)
                 (A) (A) (A) (A) (A) (A) (A) (A) (A) (A) (A) (A)
                 (A) (A) (A) (A) (A) (A) (A) (A) (A) (A) (A) (A)
                 (A) (A) (A) (A) (A) (A) (A) (A) (A) (A) (A) (A)
                 (A) (A) (A) (A) (A) (A) (A) (A) (A) (A) (A) (A)
                 (A) (A) (A) (A) (A) (A) (A) (A) (A) (A) (A) (A)
                 (A) (A) (A) (A) (A) (A) (A) (A) (A) (A) (A) (A)
                 (A) (A) (A) (A) (A) (A) (A) (A) (A) (A) (A) (A)
                 (A) (A) (A) (A) (A) (A) (A) (A) (A) (A) (A) (A)
                 (A) (A) (A) (A) (A) (A) (A) (A) (A) (A) (A) (A)
                 (A) (A) (A) (A) (A) (A) (A) (A) (A) (A) (A) (A)
                 (A) (A) (A) (A) (A) (A) (A) (A) (A) (A) (A) (A)
                 (A) (A) (A) (A) (A) (A) (A) (A) (A) (A) (A) (A)
                 (A) (A) (A) (A) (A) (A) (A) (A) (A) (A) (A) (A)
                 (A) (A) (A) (A) (A) (A) (A) (A) (A) (A) (A) (A)
                 (A) (A) (A) (A) (A) (A) (A) (A) (A) (A) (A) (A)
                 (A) (A) (A) (A) (A) (A) (A) (A) (A) (A) (A) (A)
                 (A) (A) (A) (A) (A) (A) (A) (A) (A) (A) (A) (A)
                 (A) (A) (A) (A) (A) (A) (A) (A) (A) (A) (A) (A)
                 (A) (A) (A) (A) (A) (A) (A) (A) (A) (A) (A) (A)
                 (A) (A) (A) (A) (A) (A) (A) (A) (A) (A) (A) (A)
                 (A) (A) (A) (A) (A) (A)
 Beta  Orbitals:
       Occupied  (A) (A) (A) (A) (A) (A) (A) (A) (A) (A) (A) (A)
                 (A) (A) (A) (A) (A) (A) (A) (A) (A) (A) (A) (A)
                 (A) (A) (A) (A) (A) (A) (A) (A) (A) (A) (A) (A)
                 (A) (A) (A) (A) (A) (A) (A) (A) (A) (A) (A) (A)
                 (A) (A) (A) (A) (A) (A) (A) (A) (A) (A) (A) (A)
                 (A) (A) (A) (A)
       Virtual   (A) (A) (A) (A) (A) (A) (A) (A) (A) (A) (A) (A)
                 (A) (A) (A) (A) (A) (A) (A) (A) (A) (A) (A) (A)
                 (A) (A) (A) (A) (A) (A) (A) (A) (A) (A) (A) (A)
                 (A) (A) (A) (A) (A) (A) (A) (A) (A) (A) (A) (A)
                 (A) (A) (A) (A) (A) (A) (A) (A) (A) (A) (A) (A)
                 (A) (A) (A) (A) (A) (A) (A) (A) (A) (A) (A) (A)
                 (A) (A) (A) (A) (A) (A) (A) (A) (A) (A) (A) (A)
                 (A) (A) (A) (A) (A) (A) (A) (A) (A) (A) (A) (A)
                 (A) (A) (A) (A) (A) (A) (A) (A) (A) (A) (A) (A)
                 (A) (A) (A) (A) (A) (A) (A) (A) (A) (A) (A) (A)
                 (A) (A) (A) (A) (A) (A) (A) (A) (A) (A) (A) (A)
                 (A) (A) (A) (A) (A) (A) (A) (A) (A) (A) (A) (A)
                 (A) (A) (A) (A) (A) (A) (A) (A) (A) (A) (A) (A)
                 (A) (A) (A) (A) (A) (A) (A) (A) (A) (A) (A) (A)
                 (A) (A) (A) (A) (A) (A) (A) (A) (A) (A) (A) (A)
                 (A) (A) (A) (A) (A) (A) (A) (A) (A) (A) (A) (A)
                 (A) (A) (A) (A) (A) (A) (A) (A) (A) (A) (A) (A)
                 (A) (A) (A) (A) (A) (A) (A) (A) (A) (A) (A) (A)
                 (A) (A) (A) (A) (A) (A) (A) (A) (A) (A) (A) (A)
                 (A) (A) (A) (A) (A) (A) (A) (A) (A) (A) (A) (A)
                 (A) (A) (A) (A) (A) (A) (A) (A) (A) (A) (A) (A)
                 (A) (A) (A) (A) (A) (A) (A) (A) (A) (A) (A) (A)
                 (A) (A) (A) (A) (A) (A) (A) (A) (A) (A) (A) (A)
                 (A) (A) (A) (A) (A) (A) (A) (A) (A) (A) (A) (A)
                 (A) (A) (A) (A) (A) (A) (A) (A) (A) (A) (A) (A)
[...]
 161,-0.00001536,0.00044121,-0.00092553,-0.00014292,-0.00002079,0.00014
 008,-0.00017792,0.00174352,-0.00304596,-0.00058091,0.04012448,0.064648
 69,0.00005881,-0.00001967,0.00001773,0.00006267,0.00003729,0.00000127,
 -0.00004928,0.00004366,0.00004738,0.00001237,-0.00000169,-0.00001939,-
 0.00032228,-0.00007750,-0.00010504,0.00002360,-0.00000934,-0.00002946,
 0.00000269,-0.00001292,-0.00001246,0.00004572,-0.00006033,-0.00001628,
 -0.00000095,0.00000620,0.00000709,-0.00000619,-0.00000060,0.00000505,-
 0.00001400,-0.00000433,0.00002448,0.00000057,0.00001927,-0.00001220,0.
 00001117,-0.00000997,-0.00000400,-0.00000358,0.00000043,0.00000309,-0.
 00000186,-0.00000274,0.00001053,0.00000774,-0.00000378,-0.00000413,-0.
 00001279,0.00003673,0.00001332,0.00000789,0.00001408,0.00000391,0.0000
 0587,-0.00000675,-0.00000093,0.00004131,0.00001426,-0.00000787,0.00000
 068,-0.00000411,0.00000283,0.00001385,0.00001117,-0.00000054,-0.000004
 30,-0.00000302,-0.00000278,0.00000231,-0.00000819,0.00000050,0.0000098
 3,-0.00000452,-0.00001669,0.00000375,0.00001415,0.00000233,-0.00020753
 ,0.00110717,0.00214835,-0.00062765,-0.00052614,0.00043033,-0.00446733,
 0.00005273,-0.00213851,0.00980772,0.00873478,-0.01710034,0.07294299,0.
 08606451,-0.28847198,-0.00084755,0.00022032,0.00087050,0.00000450,-0.0
 0000026,0.00000840,0.00016156,-0.00016216,-0.00008572,0.00050758,0.000
 43953,-0.00093698,0.00014388,-0.00093547,0.00070998,-0.07795387,-0.094
 21555,0.30419175,-0.00270267,-0.00068878,-0.00115972,0.00002024,0.0000
 4232,0.00204335,-0.00027461,0.00039188,0.00006834,-0.00000674,-0.00003
 907,-0.00001377,-0.00050461,0.00093824,0.00053520,0.00012738,-0.000076
 12,-0.00001607,0.00004392,-0.00016693,-0.00003603,0.00029098,-0.000213
 26,-0.00025753,0.00000021,0.00009197,-0.00001113,-0.00004363,0.0000045
 7,-0.00001787,-0.00000246,0.00000492,-0.00004285,0.00006946,-0.0000140
 7,-0.00004519,-0.00003621,-0.00003649,-0.00005791,-0.00002226,-0.00000
 649,0.00001672,-0.00000790,0.00001432,-0.00001660,0.00005884,0.0000047
 8,-0.00006135,-0.00001494,0.00009999,0.00008744,0.00030862,-0.00025167
 ,0.00019582,0.00004570,-0.00003652,-0.00003162,-0.00008830,0.00009264,
 -0.00014827,-0.00005126,-0.00005259,-0.00002032,0.00001246,0.00004974,
 -0.00001797,-0.00002860,-0.00000499,0.00001331,0.00014122,-0.00029224,
 -0.00011793,-0.00030803,0.00013793,-0.00020491,-0.00020155,-0.00001595
 ,0.00005081,0.01029463,0.00127760,0.00735714,0.00097516,-0.00299519,0.
 00238023,-0.00045383,-0.00002644,0.00091732,-0.00272629,-0.00482312,0.
 00107427,-0.01120920,-0.00192119,-0.02227461,-0.15943685,-0.02252689,-
 0.13858934,0.00005979,0.00007172,0.00004026,0.00045577,-0.00000369,0.0
 0065832,-0.00017139,0.00042507,0.00002093,-0.00059275,-0.00005959,-0.0
 0102097,0.00024175,0.00185161,0.00064011,0.16580367,-0.00016521,-0.000
 15677,0.00012840,-0.00046523,-0.00022915,0.00024502,-0.00007002,0.0001
 3404,-0.00002612,0.00006633,0.00003869,-0.00013318,0.00152567,-0.00249
 346,-0.00087278,0.00016587,0.00006821,-0.00010413,0.00003081,-0.000086
 33,-0.00002015,-0.00087654,0.00014531,0.00042870,0.00005530,-0.0000788
 8,0.00003837,-0.00004561,-0.00001295,0.00001315,0.00001550,-0.00001454
 ,0.00003648,-0.00008884,-0.00009037,0.00001578,-0.00006227,-0.00006017
 ,0.00000676,-0.00002460,-0.00000200,0.00000377,-0.00000388,-0.00000149
 ,0.00003719,0.00002989,-0.00000316,-0.00001819,0.00003500,-0.00024350,
 -0.00012850,0.00010276,-0.00014792,0.00018936,-0.00001667,-0.00003222,
 0.00002910,0.00023929,0.00009726,-0.00010570,-0.00002294,0.00000263,0.
 00001425,-0.00006289,-0.00004736,-0.00000160,0.00005944,0.00001349,-0.
 00004235,-0.00041650,-0.00046644,-0.00015966,0.00032069,-0.00018456,0.
 00018388,0.00003817,0.00015923,-0.00016197,0.00693710,0.00539056,0.008
 57369,-0.00305011,0.00496955,0.00295990,-0.00005356,-0.00096071,0.0002
 6598,-0.00485384,0.00526138,0.00179930,-0.00780756,0.00283818,-0.01082
 319,-0.02264574,-0.04667051,-0.01823565,0.00007244,-0.00001583,-0.0001
 1985,0.00024954,0.00021065,0.00056873,0.00046157,-0.00091263,-0.000228
 03,-0.00035414,-0.00001045,-0.00050770,0.00201066,-0.00325286,-0.00074
 216,0.02869432,0.03682752,-0.00147727,-0.00034624,0.00088337,0.0007433
 7,-0.00041897,-0.00098594,0.00045027,-0.00009324,-0.00016732,0.0000039
 7,0.00004214,0.00003581,-0.00119972,-0.00080045,-0.00005251,-0.0000505
 7,0.00013123,-0.00006613,-0.00002139,0.00007838,-0.00002041,0.00011472
 ,0.00020591,-0.00019344,0.00006629,-0.00003779,0.00002888,0.00000366,-
 0.00002056,0.00001155,-0.00003478,-0.00001918,0.00005611,-0.00003196,-
 0.00007705,-0.00006802,0.00001278,0.00002178,0.00006313,0.00001295,-0.
 00000748,-0.00000871,0.00000546,-0.00001331,0.00000907,-0.00002458,0.0
 0000270,0.00003434,-0.00000547,0.00001594,0.00002292,0.00015337,-0.000
 19448,-0.00001971,-0.00002816,0.00002385,0.00001282,-0.00002631,-0.000
 07145,0.00010917,0.00004326,0.00003779,0.00001511,0.00002705,-0.000029
 69,0.00000553,-0.00001999,0.00000779,0.00000535,0.00006690,0.00007294,
 0.00019492,-0.00017655,0.00011599,-0.00006143,-0.00007906,-0.00012647,
 0.00011490,-0.01799881,-0.00313236,-0.01771845,0.00218514,0.00330281,-
 0.00346058,0.00098323,0.00024133,-0.00003770,0.00092638,0.00179947,0.0
 0160824,0.00431519,0.00110249,0.00780433,-0.13647745,-0.01731289,-0.23
 727471,-0.00005747,-0.00003869,-0.00003103,-0.00088824,-0.00015689,-0.
 00096093,-0.00000026,-0.00026352,-0.00002864,0.00034015,0.00009447,0.0
 0026070,0.00000937,-0.00104393,0.00046376,0.14808964,0.01696002,0.2493
 8448,-0.00012312,-0.00002348,-0.00013100,0.00005265,0.00134928,-0.0000
 0732,0.00003690,-0.00003798,-0.00026978,-0.00004707,0.00005771,0.00006
 951,-0.00209776,0.00093866,-0.00219591,-0.00002191,-0.00001494,0.00001
 801,0.00001457,0.00002228,0.00003973,-0.00118349,0.01758889,0.00197562
 ,0.00000060,-0.00000850,0.00000051,0.00000700,-0.00000136,-0.00000425,
 -0.00001403,-0.00000896,0.00000341,-0.00000463,0.00001407,-0.00001669,
 0.00001429,0.00002181,0.00000586,-0.00001966,0.00001092,-0.00001552,0.
 00001849,-0.00000118,0.00000149,-0.00002572,-0.00000755,0.00000486,0.0
 0094488,0.00136165,0.00056393,0.00014064,-0.00016933,0.00084014,-0.000
 02608,0.00002166,-0.00001429,-0.00012623,-0.00017239,-0.00041146,0.000
 18121,-0.00018863,0.00007958,-0.00044559,-0.00028871,-0.00045962,-0.00
 009030,0.00002628,0.00004460,-0.00020641,-0.00002261,0.00016030,-0.000
 06647,-0.00020197,-0.00005917,0.00033645,-0.00026596,-0.00001462,-0.00
 019319,-0.00033657,0.00009348,-0.00005420,-0.00045664,-0.00008518,0.00
 035038,-0.00000117,-0.00009545,0.00004972,0.00002464,0.00024955,-0.000
 25578,-0.00007928,-0.00001724,0.00028361,0.00011467,-0.00025382,-0.045
 54134,-0.01194958,-0.00067944,-0.00014067,0.00007337,0.00026154,0.0000
 0471,0.00000551,-0.00000600,-0.00001397,-0.00000191,0.00002009,0.00000
 286,-0.00000364,0.00000182,-0.00002768,-0.00001513,0.00003480,0.048210
 07,0.00008771,0.00015408,0.00044810,0.00002991,-0.00096440,-0.00076706
 ,-0.00010957,0.00006682,0.00041918,0.00006800,-0.00007598,-0.00010181,
 0.00167275,0.00006352,0.00249912,0.00003643,-0.00000459,-0.00003152,-0
 .00000760,-0.00003357,-0.00003883,-0.00054500,-0.01644942,-0.00223156,
 -0.00000747,0.00001329,-0.00000198,-0.00000271,0.00000679,0.00001069,-
 0.00000445,0.00001529,0.00003376,-0.00000213,0.00001352,0.00000177,0.0
 0001036,-0.00003587,-0.00000526,0.00002409,-0.00000299,0.00002166,-0.0
 0002377,-0.00000797,0.00001755,0.00003800,0.00000115,-0.00000894,-0.00
 117221,0.00044039,-0.00089962,-0.00043090,0.00044158,-0.00132205,0.000
 03342,-0.00003213,0.00002279,-0.00003591,0.00039817,0.00021995,-0.0000
 8004,0.00040603,0.00015713,0.00060367,0.00067529,0.00004713,0.00000977
 ,-0.00004108,0.00012089,0.00013715,0.00044992,0.00001589,0.00005718,-0
 .00012625,0.00008198,-0.00015133,0.00064249,0.00057652,0.00040028,0.00
 022627,-0.00015511,-0.00009558,-0.00008952,-0.00006024,0.00008709,0.00
 000442,0.00001123,-0.00004974,-0.00001640,0.00004742,-0.00004107,-0.00
 001096,0.00002754,-0.00010962,0.00001993,-0.00002611,-0.01058119,-0.30
 959459,-0.03752072,0.00000500,0.00003757,0.00014574,-0.00002363,-0.000
 01146,-0.00001049,-0.00001360,-0.00001319,0.00001049,-0.00001621,-0.00
 002119,0.00001247,0.00002574,-0.00002293,0.00000419,0.01050355,0.33665
 843,0.00001607,-0.00014168,0.00011044,-0.00037829,0.00165932,0.0006301
 7,0.00000689,0.00003702,-0.00043643,-0.00007491,0.00009267,0.00010784,
 -0.00195864,0.00048691,-0.00351945,-0.00004152,-0.00000750,-0.00001996
 ,-0.00000303,0.00002877,-0.00001371,0.00079190,0.02377702,0.00130544,0
 .00000442,-0.00000932,0.00000625,0.00000486,-0.00000511,-0.00000089,0.
 00001055,0.00000432,0.00000839,0.00000271,-0.00000328,0.00000215,0.000
 00864,0.00001271,0.00001105,-0.00000337,-0.00000250,0.00000530,-0.0000
 2577,0.00000998,0.00001082,-0.00001290,-0.00001195,0.00001464,0.001105
 46,0.00034876,0.00055094,-0.00003838,0.00123266,0.00125917,-0.00003615
 ,0.00002944,-0.00002732,-0.00027867,0.00014709,0.00038455,0.00028359,-
 0.00001009,-0.00007795,-0.00021031,-0.00033671,0.00017039,-0.00004631,
 -0.00017130,-0.00003454,-0.00003066,-0.00016773,0.00022431,0.00015175,
 -0.00002584,-0.00003353,-0.00023113,-0.00029471,-0.00061371,-0.0003266
 6,-0.00016709,0.00015432,0.00001793,-0.00008587,-0.00043770,0.00008274
 ,-0.00002428,0.00012414,-0.00001015,0.00001404,0.00004809,-0.00004174,
 -0.00003318,0.00000694,0.00005192,0.00007082,-0.00000927,-0.00056126,-
 0.03922938,-0.05116804,0.00000167,0.00009309,0.00020102,0.00001932,-0.
 00000402,-0.00000843,-0.00000849,-0.00000148,0.00001858,0.00000640,-0.
 00000250,-0.00000068,-0.00002704,0.00000532,0.00002506,0.00389677,0.03
 989826,0.05534703,0.00009883,0.00010425,0.00005901,0.00017189,0.000153
 90,-0.00017119,-0.00008470,-0.00011317,0.00001625,0.00000713,0.0000100
 3,0.00000042,-0.00047891,-0.00078845,0.00006068,0.00000089,-0.00001935
 ,-0.00001440,-0.00002495,0.00001524,0.00001739,-0.01649833,-0.00493275
 ,0.00126115,0.00000069,0.00000891,-0.00001247,0.00001474,-0.00000811,0
 .00001323,-0.00002318,-0.00000392,0.00002095,0.00000822,0.00003545,-0.
 00002279,0.00002165,0.00000404,0.00000084,0.00006320,-0.00001761,0.000
 01471,-0.00000832,-0.00003209,-0.00003632,0.00000057,0.00003595,0.0000
 0079,-0.00076328,0.00258065,-0.00359473,0.00061430,-0.00019398,0.00128
 478,-0.00000463,0.00000479,0.00000325,-0.00003593,0.00004975,-0.000046
 04,-0.00111213,-0.00049483,0.00001604,0.00028377,-0.00002386,0.0001111
 7,0.00032738,0.00000559,0.00008710,0.00026243,0.00026489,0.00001572,0.
 00056628,-0.00010165,-0.00055448,-0.00005877,0.00009627,-0.00009500,0.
 00008978,-0.00050804,0.00056180,-0.00017957,-0.00136799,-0.00035031,0.
 00053662,0.00003206,-0.00023455,0.00003425,0.00003444,0.00057010,-0.00
 054785,-0.00019757,-0.00007140,0.00052496,0.00025184,-0.00054997,-0.29
 405598,-0.07327710,0.00617104,-0.00012581,0.00013695,0.00043080,0.0000
 0989,0.00000434,-0.00001811,-0.00001944,-0.00000044,0.00003094,-0.0000
 0883,0.00000032,0.00000125,-0.00003658,-0.00001170,0.00003570,0.000319
 64,0.00005597,0.00012212,0.32019234,-0.00006386,-0.00005456,-0.0001222
 1,-0.00018746,0.00014892,0.00016375,0.00004444,0.00001973,-0.00009153,
 -0.00001659,0.00001100,0.00001802,0.00028956,0.00049298,-0.00032780,-0
 .00000333,0.00000930,0.00002254,-0.00000009,0.00000496,-0.00000338,0.0
 1491294,0.00429802,-0.00145788,0.00000343,-0.00000746,0.00000569,-0.00
 000530,-0.00000009,-0.00000757,0.00001787,-0.00000159,-0.00002757,0.00
 000282,-0.00002388,0.00001054,-0.00001753,0.00000970,-0.00000042,-0.00
 002306,0.00000531,-0.00000295,-0.00000103,0.00001771,0.00000415,-0.000
 00743,-0.00000759,0.00000358,0.00123012,-0.00158603,0.00215882,-0.0000
 4699,0.00006802,-0.00080276,-0.00000573,0.00000740,-0.00000268,-0.0000
 5727,0.00007721,-0.00013164,0.00089956,0.00071968,0.00023267,0.0001818
 1,0.00042209,0.00013237,-0.00022827,-0.00009537,0.00010370,0.00009198,
 -0.00012068,-0.00012676,-0.00020791,0.00029879,-0.00002457,-0.00018780
 ,-0.00008282,0.00002792,0.00052552,-0.00110266,0.00057320,-0.00059394,
 -0.00190452,0.00003602,-0.00009806,-0.00009659,-0.00015687,0.00003787,
 0.00002104,0.00005886,-0.00006131,-0.00001792,-0.00004291,0.00003767,-
 0.00000695,-0.00007567,-0.07525767,-0.06853128,0.00173960,0.00006458,-
 0.00044911,-0.00015091,0.00001478,0.00002804,0.00001673,0.00001426,0.0
 0003239,-0.00001777,0.00000195,0.00002124,-0.00001516,0.00002661,0.000
 02586,-0.00004372,-0.03078252,-0.00800386,0.00143666,0.08138674,0.0741
 0337,0.00006378,0.00001762,0.00001415,0.00010121,-0.00014928,-0.000157
 00,0.00001399,-0.00003754,0.00003854,-0.00000736,-0.00001347,-0.000011
 57,0.00007370,-0.00046328,0.00053604,0.00000373,-0.00000313,0.00000019
 ,-0.00005048,0.00000484,-0.00003416,-0.02185180,-0.00863377,0.00024758
 ,0.00000174,0.00000131,0.00000288,0.00000429,-0.00000521,0.00000365,0.
 00000296,0.00000241,0.00000235,0.00000073,0.00000431,-0.00000077,0.000
 00235,0.00000086,-0.00000093,0.00003171,-0.00001426,0.00000150,-0.0000
 0237,0.00001858,0.00000123,0.00001116,0.00000939,0.00001244,-0.0020135
 5,0.00245040,-0.00368380,-0.00111435,-0.00050982,0.00168452,0.00000248
 ,0.00000076,0.00000403,0.00009756,0.00017330,-0.00009791,-0.00164258,-
 0.00021695,0.00042418,0.00023525,0.00012945,-0.00012273,-0.00027345,0.
 00016163,0.00024212,0.00022619,0.00012774,0.00017790,0.00035240,0.0002
 8127,-0.00053221,0.00000443,-0.00007281,-0.00006918,0.00007173,0.00051
 200,0.00009223,0.00000065,0.00012071,0.00049660,-0.00004269,0.00005807
 ,-0.00005292,0.00000846,-0.00001444,-0.00002774,0.00006167,0.00003097,
 -0.00007094,0.00004612,-0.00010735,-0.00014403,0.00749497,0.00168082,-
 0.04806809,0.00024179,-0.00036475,-0.00029094,-0.00003039,-0.00002009,
 -0.00000269,0.00001043,-0.00000367,-0.00001962,-0.00001223,0.00001584,
 0.00000025,-0.00001105,0.00001412,-0.00002133,-0.00486983,-0.00114857,
 -0.00085568,-0.00481560,-0.00331460,0.05003897,-0.00004794,0.00005164,
 -0.00007020,-0.00000176,-0.00032488,-0.00003721,0.00004332,0.00001649,
 0.00002947,-0.00000967,-0.00001352,-0.00000498,0.00033311,-0.00041660,
 -0.00023980,0.00000911,-0.00001379,0.00002512,-0.00001794,0.00000580,-
 0.00004360,0.00535188,-0.00416520,-0.01470611,-0.00000039,-0.00000379,
 0.00000548,-0.00000392,0.00000361,-0.00000583,0.00000073,-0.00000588,-
 0.00000012,-0.00000730,-0.00000161,-0.00000608,0.00000084,-0.00000024,
 -0.00000336,-0.00002070,0.00000433,-0.00001010,0.00004319,-0.00000449,
 0.00005419,0.00000386,-0.00001982,0.00001157,0.00143882,-0.00023357,-0
 .00073469,-0.00142560,0.00130431,-0.00220383,0.00000419,-0.00000164,0.
 00000105,0.00017009,0.00002274,0.00009250,0.00016037,-0.00000522,0.000
 18496,-0.00004103,-0.00015330,0.00005761,-0.00025476,0.00027788,0.0000
 8990,0.00073926,-0.00000146,-0.00086676,0.00027403,0.00015522,-0.00023
 726,-0.00017033,0.00007582,0.00002651,0.00001580,-0.00002716,-0.000016
 50,-0.00005687,0.00001800,0.00057304,0.00005170,0.00009023,-0.00017939
 ,0.00005252,-0.00001970,0.00001874,-0.00001654,0.00001350,-0.00005867,
 0.00002837,-0.00003075,-0.00011272,-0.08690236,0.02106062,0.09174488,0
 .00001442,-0.00017606,-0.00022141,-0.00002667,0.00000721,0.00001413,0.
 00001184,0.00000391,-0.00002001,-0.00000739,0.00001112,-0.00000307,-0.
 00000144,0.00000265,-0.00002562,-0.00024339,-0.00038231,-0.00224031,-0
 .01008226,0.00806865,0.02757225,0.09059083,-0.00006681,-0.00006244,-0.
 00010513,0.00005610,0.00018809,0.00001427,0.00002463,-0.00000826,-0.00
 004826,-0.00000665,0.00000527,0.00001196,-0.00063145,0.00088263,0.0017
 3968,0.00001018,-0.00000960,0.00003000,0.00001114,-0.00002098,0.000057
 70,-0.00622960,0.00120213,0.01275694,0.00000075,-0.00000070,-0.0000007
 3,-0.00000227,-0.00000188,-0.00000483,-0.00001164,-0.00000796,-0.00002
 489,-0.00000274,0.00000061,-0.00000587,-0.00000843,0.00001286,-0.00000
 616,-0.00001492,0.00000733,-0.00002026,0.00001060,0.00003300,-0.000042
 13,-0.00001334,0.00000892,-0.00001170,-0.00059304,0.00010438,-0.000270
 67,0.00127051,-0.00118352,0.00171838,-0.00000480,0.00000533,-0.0000020
 4,0.00033111,-0.00065527,0.00013997,-0.00016441,-0.00014049,0.00001185
 ,0.00014010,-0.00007875,-0.00015506,-0.00000999,0.00020185,-0.00023178
 ,-0.00004180,0.00071898,0.00076582,0.00021922,-0.00011639,-0.00012919,
 0.00004389,0.00044317,0.00029442,0.00000283,-0.00005472,-0.00007511,0.
 00002623,0.00006585,0.00019730,-0.00004701,0.00003748,-0.00006615,0.00
 002613,-0.00000393,-0.00003957,0.00002929,0.00004419,-0.00001681,0.000
 03231,-0.00002100,0.00000750,0.02114189,-0.05845113,-0.05011364,-0.000
 07793,-0.00011657,-0.00016110,-0.00000178,0.00000917,0.00000794,0.0000
 0985,-0.00000176,-0.00001359,0.00000395,0.00000634,-0.00000239,0.00000
 533,0.00001465,-0.00001287,0.01290508,-0.00517658,-0.02864933,-0.00317
 977,0.00125017,0.00927662,-0.02519273,0.06086952,0.00001091,0.00007926
 ,0.00044327,-0.00033402,0.00008870,0.00035367,0.00004906,0.00003058,-0
 .00007911,-0.00002699,0.00001408,0.00003102,0.00084849,-0.00178113,-0.
 00044208,-0.00004068,0.00002013,-0.00001668,-0.00004051,0.00003933,-0.
 00006033,0.01017157,-0.00601141,-0.02126273,0.00000054,-0.00001572,0.0
 0001082,0.00000906,-0.00000199,-0.00000337,0.00002147,0.00002166,0.000
 00872,-0.00000008,-0.00001877,0.00001266,0.00000501,0.00000139,0.00001
 150,0.00000244,-0.00000300,0.00000022,-0.00005421,0.00006990,0.0000243
 1,0.00000495,-0.00002429,0.00002982,0.00148724,-0.00029385,0.00067942,
 -0.00420917,0.00355828,-0.00312566,-0.00000908,0.00001094,-0.00000167,
 -0.00018508,0.00087982,0.00087235,-0.00011393,0.00018970,0.00037029,-0
 .00006963,0.00003785,-0.00011279,-0.00094950,0.00002744,0.00039891,0.0
 0080719,-0.00061347,-0.00152470,0.00002122,-0.00001312,0.00033073,-0.0
 0005855,0.00002376,0.00040826,-0.00004970,0.00012290,0.00017225,0.0000
 0601,0.00012072,-0.00037105,0.00000431,-0.00002423,0.00013798,-0.00002
 037,-0.00000590,-0.00000174,-0.00002606,-0.00001752,0.00008112,-0.0001
 3513,0.00001764,0.00003371,0.09025470,-0.04944611,-0.25792869,0.000139
 14,0.00016903,0.00011805,0.00001047,0.00000101,-0.00000264,-0.00000242
 ,-0.00000820,0.00001765,-0.00000681,-0.00001889,0.00000315,0.00001084,
 -0.00008638,0.00002743,0.00124099,-0.00052156,-0.00346975,-0.00031988,
 0.00020252,0.00024292,-0.09845380,0.05317890,0.28358277\\0.00000470,-0
 .00000714,-0.00000299,-0.00000888,0.00001901,0.00000026,0.00002970,-0.
 00004057,-0.00001648,0.00000959,-0.00000681,0.00001220,-0.00004149,0.0
 0001007,0.00000704,-0.00000965,0.00000958,0.00000492,-0.00001086,0.000
 01813,0.00000834,0.00000421,0.00000263,-0.00000521,0.00000557,0.000001
 05,-0.00000280,-0.00000231,-0.00000384,-0.00000264,-0.00000015,-0.0000
 0582,0.00000193,0.00000552,-0.00000029,-0.00000666,-0.00000189,0.00000
 044,-0.00000314,-0.00000176,-0.00000559,-0.00000461,0.00000735,0.00000
 031,-0.00000250,-0.00000336,0.00000286,-0.00000084,0.00001236,0.000007
 88,-0.00000089,-0.00000760,0.00000202,0.00000881,-0.00000377,0.0000068
 8,0.00000300,0.00000840,-0.00000155,-0.00000185,-0.00000234,0.00000485
 ,-0.00000320,-0.00000023,-0.00000575,-0.00000182,-0.00000282,0.0000004
 9,0.00000393,0.00000057,0.00000056,-0.00000061,0.00000369,-0.00000152,
 0.00000111,-0.00000096,-0.00000968,0.00000070,0.00001249,-0.00000087,0
 .00001007,-0.00000697,-0.00000112,-0.00000804,0.00000617,0.00000231,0.
 00000035,0.00000263,-0.00000009,0.00001129,-0.00000996,-0.00000497,-0.
 00000739,0.00000758,0.00000797,-0.00000284,-0.00000782,0.00000347,-0.0
 0001077,-0.00000024,-0.00000278,0.00000338,-0.00000100,-0.00000096,0.0
 0000139,0.00000191,-0.00000036,0.00000020,0.00000086,-0.00000057,0.000
 00110,-0.00000149,-0.00000261,-0.00000125,-0.00000019,-0.00000505,0.00
 000036,0.00000541,0.00000539,0.00000047,-0.00000295,0.00000203,0.00000
 567\\\@
 The archive entry for this job was punched.


 I LOVE MANKIND - IT'S PEOPLE I CAN'T STAND.
     -- LINUS OF PEANUTS
 Job cpu time:       2 days 22 hours 39 minutes 35.3 seconds.
 Elapsed time:       0 days  3 hours 31 minutes 59.8 seconds.
 File lengths (MBytes):  RWF=   2774 Int=      0 D2E=      0 Chk=     52 Scr=      1
 Normal termination of Gaussian 16 at Tue Jan  7 22:52:15 2025.
