 Entering Gaussian System, Link 0=g16
 Input=gjfs/data_set_12-catalyst-32.gjf
 Output=gjfs/data_set_12-catalyst-32.log
 Initial command:
 /usr/local/intel/g16/l1.exe "/scr/Gau-1100144.inp" -scrdir="/scr/"
 Entering Link 1 = /usr/local/intel/g16/l1.exe PID=   1100150.
  
 Copyright (c) 1988-2019, Gaussian, Inc.  All Rights Reserved.
  
 This is part of the Gaussian(R) 16 program.  It is based on
 the Gaussian(R) 09 system (copyright 2009, Gaussian, Inc.),
 the Gaussian(R) 03 system (copyright 2003, Gaussian, Inc.),
 the Gaussian(R) 98 system (copyright 1998, Gaussian, Inc.),
 the Gaussian(R) 94 system (copyright 1995, Gaussian, Inc.),
 the Gaussian 92(TM) system (copyright 1992, Gaussian, Inc.),
 the Gaussian 90(TM) system (copyright 1990, Gaussian, Inc.),
 the Gaussian 88(TM) system (copyright 1988, Gaussian, Inc.),
 the Gaussian 86(TM) system (copyright 1986, Carnegie Mellon
 University), and the Gaussian 82(TM) system (copyright 1983,
 Carnegie Mellon University). Gaussian is a federally registered
 trademark of Gaussian, Inc.
  
 This software contains proprietary and confidential information,
 including trade secrets, belonging to Gaussian, Inc.
  
 This software is provided under written license and may be
 used, copied, transmitted, or stored only in accord with that
 written license.
  
 The following legend is applicable only to US Government
 contracts under FAR:
  
                    RESTRICTED RIGHTS LEGEND
  
 Use, reproduction and disclosure by the US Government is
 subject to restrictions as set forth in subparagraphs (a)
 and (c) of the Commercial Computer Software - Restricted
 Rights clause in FAR 52.227-19.
  
 Gaussian, Inc.
 340 Quinnipiac St., Bldg. 40, Wallingford CT 06492
  
  
 ---------------------------------------------------------------
 Warning -- This program may not be used in any manner that
 competes with the business of Gaussian, Inc. or will provide
 assistance to any competitor of Gaussian, Inc.  The licensee
 of this program is prohibited from giving any competitor of
 Gaussian, Inc. access to this program.  By using this program,
 the user acknowledges that Gaussian, Inc. is engaged in the
 business of creating and licensing software in the field of
 computational chemistry and represents and warrants to the
 licensee that it is not a competitor of Gaussian, Inc. and that
 it will not use this program in any manner prohibited above.
 ---------------------------------------------------------------
  

 Cite this work as:
 Gaussian 16, Revision C.01,
 M. J. Frisch, G. W. Trucks, H. B. Schlegel, G. E. Scuseria, 
 M. A. Robb, J. R. Cheeseman, G. Scalmani, V. Barone, 
 G. A. Petersson, H. Nakatsuji, X. Li, M. Caricato, A. V. Marenich, 
 J. Bloino, B. G. Janesko, R. Gomperts, B. Mennucci, H. P. Hratchian, 
 J. V. Ortiz, A. F. Izmaylov, J. L. Sonnenberg, D. Williams-Young, 
 F. Ding, F. Lipparini, F. Egidi, J. Goings, B. Peng, A. Petrone, 
 T. Henderson, D. Ranasinghe, V. G. Zakrzewski, J. Gao, N. Rega, 
 G. Zheng, W. Liang, M. Hada, M. Ehara, K. Toyota, R. Fukuda, 
 J. Hasegawa, M. Ishida, T. Nakajima, Y. Honda, O. Kitao, H. Nakai, 
 T. Vreven, K. Throssell, J. A. Montgomery, Jr., J. E. Peralta, 
 F. Ogliaro, M. J. Bearpark, J. J. Heyd, E. N. Brothers, K. N. Kudin, 
 V. N. Staroverov, T. A. Keith, R. Kobayashi, J. Normand, 
 K. Raghavachari, A. P. Rendell, J. C. Burant, S. S. Iyengar, 
 J. Tomasi, M. Cossi, J. M. Millam, M. Klene, C. Adamo, R. Cammi, 
 J. W. Ochterski, R. L. Martin, K. Morokuma, O. Farkas, 
 J. B. Foresman, and D. J. Fox, Gaussian, Inc., Wallingford CT, 2019.
 
 ******************************************
 Gaussian 16:  ES64L-G16RevC.01  3-Jul-2019
                 7-Jan-2025 
 ******************************************
 %nprocshared=20
 Will use up to   20 processors via shared memory.
 %mem=30GB
 %chk=outputs/data_set_12-catalyst-32.chk
 ----------------------------------
 #p M062X/DEF2TZVP opt freq pop=NBO
 ----------------------------------
 1/18=20,19=15,26=3,38=1/1,3;
 2/9=110,12=2,17=6,18=5,40=1/2;
 3/5=44,7=101,11=2,25=1,30=1,71=1,74=-55/1,2,3;
 4//1;
 5/5=2,38=5/2;
 6/7=2,8=2,9=2,10=2,28=1,40=1/1,7;
 7//1,2,3,16;
 1/18=20,19=15,26=3/3(2);
 2/9=110/2;
 99//99;
 2/9=110/2;
 3/5=44,7=101,11=2,25=1,30=1,71=1,74=-55/1,2,3;
 4/5=5,16=3,69=1/1;
 5/5=2,38=5/2;
 7//1,2,3,16;
 1/18=20,19=15,26=3/3(-5);
 2/9=110/2;
 6/7=2,8=2,9=2,10=2,19=2,28=1,40=1/1,7;
 99/9=1/99;
 Leave Link    1 at Tue Jan  7 16:43:06 2025, MaxMem=  4026531840 cpu:               1.2 elap:               0.4
 (Enter /usr/local/intel/g16/l101.exe)
 -----------------------
 data_set_12-catalyst-32
 -----------------------
 Symbolic Z-matrix:
 Charge =  0 Multiplicity = 2
 O                     0.22568  -1.79584   0.20025 
 N                     0.57246  -0.53539   0.10974 
 C                    -0.38178   0.57758  -0.17861 
 O                     0.5292    1.65982  -0.53426 
 C                     1.8118    1.41979   0.12213 
 C                     2.00088  -0.10977   0.07178 
 C                     2.75095  -0.67327   1.28333 
 C                     2.63458  -0.57427  -1.25313 
 H                     2.56751   1.96346  -0.44423 
 H                     1.7869    1.78349   1.15715 
 H                     2.75486  -1.76595   1.24162 
 H                     2.26904  -0.36826   2.21806 
 H                     3.78662  -0.31722   1.28659 
 H                     3.69924  -0.31801  -1.27492 
 H                     2.13998  -0.09597  -2.10478 
 H                     2.53146  -1.65922  -1.35008 
 C                    -1.19886   0.94794   1.07232 
 C                    -2.29572  -0.09133   1.37295 
 C                    -3.22053  -0.27133   0.15386 
 C                    -2.41516  -0.69307  -1.09045 
 C                    -1.27753   0.30296  -1.39186 
 H                    -0.52501   1.0641    1.9292 
 H                    -1.65594   1.92542   0.87393 
 H                    -2.87344   0.23601   2.24485 
 H                    -1.83348  -1.05267   1.62497 
 H                    -3.7435    0.67515  -0.04813 
 H                    -3.98713  -1.02321   0.37238 
 H                    -3.074    -0.75379  -1.96431 
 H                    -1.99057  -1.68811  -0.92534 
 H                    -1.69719   1.27208  -1.68922 
 H                    -0.65335  -0.05286  -2.21786 
 
 ITRead=  0  0  0  0  0  0  0  0  0  0  0  0  0  0  0  0  0  0  0  0
 ITRead=  0  0  0  0  0  0  0  0  0  0  0
 MicOpt= -1 -1 -1 -1 -1 -1 -1 -1 -1 -1 -1 -1 -1 -1 -1 -1 -1 -1 -1 -1
 MicOpt= -1 -1 -1 -1 -1 -1 -1 -1 -1 -1 -1
 NAtoms=     31 NQM=       31 NQMF=       0 NMMI=      0 NMMIF=      0
                NMic=       0 NMicF=      0.
                    Isotopes and Nuclear Properties:
 (Nuclear quadrupole moments (NQMom) in fm**2, nuclear magnetic moments (NMagM)
  in nuclear magnetons)

  Atom         1           2           3           4           5           6           7           8           9          10
 IAtWgt=          16          14          12          16          12          12          12          12           1           1
 AtmWgt=  15.9949146  14.0030740  12.0000000  15.9949146  12.0000000  12.0000000  12.0000000  12.0000000   1.0078250   1.0078250
 NucSpn=           0           2           0           0           0           0           0           0           1           1
 AtZEff=  -0.0000000  -0.0000000  -0.0000000  -0.0000000  -0.0000000  -0.0000000  -0.0000000  -0.0000000  -0.0000000  -0.0000000
 NQMom=    0.0000000   2.0440000   0.0000000   0.0000000   0.0000000   0.0000000   0.0000000   0.0000000   0.0000000   0.0000000
 NMagM=    0.0000000   0.4037610   0.0000000   0.0000000   0.0000000   0.0000000   0.0000000   0.0000000   2.7928460   2.7928460
 AtZNuc=   8.0000000   7.0000000   6.0000000   8.0000000   6.0000000   6.0000000   6.0000000   6.0000000   1.0000000   1.0000000

  Atom        11          12          13          14          15          16          17          18          19          20
 IAtWgt=           1           1           1           1           1           1          12          12          12          12
 AtmWgt=   1.0078250   1.0078250   1.0078250   1.0078250   1.0078250   1.0078250  12.0000000  12.0000000  12.0000000  12.0000000
 NucSpn=           1           1           1           1           1           1           0           0           0           0
 AtZEff=  -0.0000000  -0.0000000  -0.0000000  -0.0000000  -0.0000000  -0.0000000  -0.0000000  -0.0000000  -0.0000000  -0.0000000
 NQMom=    0.0000000   0.0000000   0.0000000   0.0000000   0.0000000   0.0000000   0.0000000   0.0000000   0.0000000   0.0000000
 NMagM=    2.7928460   2.7928460   2.7928460   2.7928460   2.7928460   2.7928460   0.0000000   0.0000000   0.0000000   0.0000000
 AtZNuc=   1.0000000   1.0000000   1.0000000   1.0000000   1.0000000   1.0000000   6.0000000   6.0000000   6.0000000   6.0000000

  Atom        21          22          23          24          25          26          27          28          29          30
 IAtWgt=          12           1           1           1           1           1           1           1           1           1
 AtmWgt=  12.0000000   1.0078250   1.0078250   1.0078250   1.0078250   1.0078250   1.0078250   1.0078250   1.0078250   1.0078250
 NucSpn=           0           1           1           1           1           1           1           1           1           1
 AtZEff=  -0.0000000  -0.0000000  -0.0000000  -0.0000000  -0.0000000  -0.0000000  -0.0000000  -0.0000000  -0.0000000  -0.0000000
 NQMom=    0.0000000   0.0000000   0.0000000   0.0000000   0.0000000   0.0000000   0.0000000   0.0000000   0.0000000   0.0000000
 NMagM=    0.0000000   2.7928460   2.7928460   2.7928460   2.7928460   2.7928460   2.7928460   2.7928460   2.7928460   2.7928460
 AtZNuc=   6.0000000   1.0000000   1.0000000   1.0000000   1.0000000   1.0000000   1.0000000   1.0000000   1.0000000   1.0000000

  Atom        31
 IAtWgt=           1
 AtmWgt=   1.0078250
 NucSpn=           1
 AtZEff=  -0.0000000
 NQMom=    0.0000000
 NMagM=    2.7928460
 AtZNuc=   1.0000000
 Leave Link  101 at Tue Jan  7 16:43:08 2025, MaxMem=  4026531840 cpu:              17.5 elap:               1.0
 (Enter /usr/local/intel/g16/l103.exe)

 GradGradGradGradGradGradGradGradGradGradGradGradGradGradGradGradGradGrad
 Berny optimization.
 Initialization pass.
                           ----------------------------
                           !    Initial Parameters    !
                           ! (Angstroms and Degrees)  !
 --------------------------                            --------------------------
 ! Name  Definition              Value          Derivative Info.                !
 --------------------------------------------------------------------------------
 ! R1    R(1,2)                  1.3104         estimate D2E/DX2                !
 ! R2    R(2,3)                  1.4941         estimate D2E/DX2                !
 ! R3    R(2,6)                  1.491          estimate D2E/DX2                !
 ! R4    R(3,4)                  1.4586         estimate D2E/DX2                !
 ! R5    R(3,17)                 1.5394         estimate D2E/DX2                !
 ! R6    R(3,21)                 1.5329         estimate D2E/DX2                !
 ! R7    R(4,5)                  1.4607         estimate D2E/DX2                !
 ! R8    R(5,6)                  1.542          estimate D2E/DX2                !
 ! R9    R(5,9)                  1.0897         estimate D2E/DX2                !
 ! R10   R(5,10)                 1.0973         estimate D2E/DX2                !
 ! R11   R(6,7)                  1.5323         estimate D2E/DX2                !
 ! R12   R(6,8)                  1.5404         estimate D2E/DX2                !
 ! R13   R(7,11)                 1.0935         estimate D2E/DX2                !
 ! R14   R(7,12)                 1.095          estimate D2E/DX2                !
 ! R15   R(7,13)                 1.0952         estimate D2E/DX2                !
 ! R16   R(8,14)                 1.0953         estimate D2E/DX2                !
 ! R17   R(8,15)                 1.0948         estimate D2E/DX2                !
 ! R18   R(8,16)                 1.0941         estimate D2E/DX2                !
 ! R19   R(17,18)                1.5406         estimate D2E/DX2                !
 ! R20   R(17,22)                1.0963         estimate D2E/DX2                !
 ! R21   R(17,23)                1.0972         estimate D2E/DX2                !
 ! R22   R(18,19)                1.5407         estimate D2E/DX2                !
 ! R23   R(18,24)                1.096          estimate D2E/DX2                !
 ! R24   R(18,25)                1.0961         estimate D2E/DX2                !
 ! R25   R(19,20)                1.541          estimate D2E/DX2                !
 ! R26   R(19,26)                1.1001         estimate D2E/DX2                !
 ! R27   R(19,27)                1.0958         estimate D2E/DX2                !
 ! R28   R(20,21)                1.5418         estimate D2E/DX2                !
 ! R29   R(20,28)                1.0961         estimate D2E/DX2                !
 ! R30   R(20,29)                1.0944         estimate D2E/DX2                !
 ! R31   R(21,30)                1.0971         estimate D2E/DX2                !
 ! R32   R(21,31)                1.0947         estimate D2E/DX2                !
 ! A1    A(1,2,3)              124.1119         estimate D2E/DX2                !
 ! A2    A(1,2,6)              121.9971         estimate D2E/DX2                !
 ! A3    A(3,2,6)              113.223          estimate D2E/DX2                !
 ! A4    A(2,3,4)              101.5876         estimate D2E/DX2                !
 ! A5    A(2,3,17)             111.1855         estimate D2E/DX2                !
 ! A6    A(2,3,21)             113.1098         estimate D2E/DX2                !
 ! A7    A(4,3,17)             110.5566         estimate D2E/DX2                !
 ! A8    A(4,3,21)             107.7516         estimate D2E/DX2                !
 ! A9    A(17,3,21)            112.0932         estimate D2E/DX2                !
 ! A10   A(3,4,5)              108.4765         estimate D2E/DX2                !
 ! A11   A(4,5,6)              104.833          estimate D2E/DX2                !
 ! A12   A(4,5,9)              107.0633         estimate D2E/DX2                !
 ! A13   A(4,5,10)             110.4546         estimate D2E/DX2                !
 ! A14   A(6,5,9)              113.1335         estimate D2E/DX2                !
 ! A15   A(6,5,10)             111.2436         estimate D2E/DX2                !
 ! A16   A(9,5,10)             109.9131         estimate D2E/DX2                !
 ! A17   A(2,6,5)               99.4885         estimate D2E/DX2                !
 ! A18   A(2,6,7)              110.112          estimate D2E/DX2                !
 ! A19   A(2,6,8)              109.266          estimate D2E/DX2                !
 ! A20   A(5,6,7)              113.5143         estimate D2E/DX2                !
 ! A21   A(5,6,8)              112.1877         estimate D2E/DX2                !
 ! A22   A(7,6,8)              111.5803         estimate D2E/DX2                !
 ! A23   A(6,7,11)             109.8199         estimate D2E/DX2                !
 ! A24   A(6,7,12)             110.9214         estimate D2E/DX2                !
 ! A25   A(6,7,13)             110.2249         estimate D2E/DX2                !
 ! A26   A(11,7,12)            108.2083         estimate D2E/DX2                !
 ! A27   A(11,7,13)            108.7598         estimate D2E/DX2                !
 ! A28   A(12,7,13)            108.8506         estimate D2E/DX2                !
 ! A29   A(6,8,14)             110.2705         estimate D2E/DX2                !
 ! A30   A(6,8,15)             110.578          estimate D2E/DX2                !
 ! A31   A(6,8,16)             109.6615         estimate D2E/DX2                !
 ! A32   A(14,8,15)            108.7493         estimate D2E/DX2                !
 ! A33   A(14,8,16)            108.7746         estimate D2E/DX2                !
 ! A34   A(15,8,16)            108.7652         estimate D2E/DX2                !
 ! A35   A(3,17,18)            111.9734         estimate D2E/DX2                !
 ! A36   A(3,17,22)            109.5363         estimate D2E/DX2                !
 ! A37   A(3,17,23)            106.7706         estimate D2E/DX2                !
 ! A38   A(18,17,22)           110.8899         estimate D2E/DX2                !
 ! A39   A(18,17,23)           109.8573         estimate D2E/DX2                !
 ! A40   A(22,17,23)           107.6382         estimate D2E/DX2                !
 ! A41   A(17,18,19)           110.5943         estimate D2E/DX2                !
 ! A42   A(17,18,24)           109.2118         estimate D2E/DX2                !
 ! A43   A(17,18,25)           109.6501         estimate D2E/DX2                !
 ! A44   A(19,18,24)           110.3631         estimate D2E/DX2                !
 ! A45   A(19,18,25)           109.4263         estimate D2E/DX2                !
 ! A46   A(24,18,25)           107.539          estimate D2E/DX2                !
 ! A47   A(18,19,20)           110.9266         estimate D2E/DX2                !
 ! A48   A(18,19,26)           109.2763         estimate D2E/DX2                !
 ! A49   A(18,19,27)           110.0166         estimate D2E/DX2                !
 ! A50   A(20,19,26)           109.6125         estimate D2E/DX2                !
 ! A51   A(20,19,27)           109.8073         estimate D2E/DX2                !
 ! A52   A(26,19,27)           107.1207         estimate D2E/DX2                !
 ! A53   A(19,20,21)           111.5105         estimate D2E/DX2                !
 ! A54   A(19,20,28)           110.1681         estimate D2E/DX2                !
 ! A55   A(19,20,29)           109.2551         estimate D2E/DX2                !
 ! A56   A(21,20,28)           108.8715         estimate D2E/DX2                !
 ! A57   A(21,20,29)           109.3054         estimate D2E/DX2                !
 ! A58   A(28,20,29)           107.6453         estimate D2E/DX2                !
 ! A59   A(3,21,20)            113.0898         estimate D2E/DX2                !
 ! A60   A(3,21,30)            106.2472         estimate D2E/DX2                !
 ! A61   A(3,21,31)            108.7981         estimate D2E/DX2                !
 ! A62   A(20,21,30)           109.9612         estimate D2E/DX2                !
 ! A63   A(20,21,31)           110.9917         estimate D2E/DX2                !
 ! A64   A(30,21,31)           107.4988         estimate D2E/DX2                !
 ! D1    D(1,2,3,4)           -164.919          estimate D2E/DX2                !
 ! D2    D(1,2,3,17)            77.4426         estimate D2E/DX2                !
 ! D3    D(1,2,3,21)           -49.712          estimate D2E/DX2                !
 ! D4    D(6,2,3,4)              5.8509         estimate D2E/DX2                !
 ! D5    D(6,2,3,17)          -111.7875         estimate D2E/DX2                !
 ! D6    D(6,2,3,21)           121.0579         estimate D2E/DX2                !
 ! D7    D(1,2,6,5)           -174.0997         estimate D2E/DX2                !
 ! D8    D(1,2,6,7)            -54.6288         estimate D2E/DX2                !
 ! D9    D(1,2,6,8)             68.2539         estimate D2E/DX2                !
 ! D10   D(3,2,6,5)             14.9094         estimate D2E/DX2                !
 ! D11   D(3,2,6,7)            134.3804         estimate D2E/DX2                !
 ! D12   D(3,2,6,8)           -102.737          estimate D2E/DX2                !
 ! D13   D(2,3,4,5)            -26.2095         estimate D2E/DX2                !
 ! D14   D(17,3,4,5)            91.8826         estimate D2E/DX2                !
 ! D15   D(21,3,4,5)          -145.3093         estimate D2E/DX2                !
 ! D16   D(2,3,17,18)          -75.2141         estimate D2E/DX2                !
 ! D17   D(2,3,17,22)           48.2326         estimate D2E/DX2                !
 ! D18   D(2,3,17,23)          164.5108         estimate D2E/DX2                !
 ! D19   D(4,3,17,18)          172.7354         estimate D2E/DX2                !
 ! D20   D(4,3,17,22)          -63.8178         estimate D2E/DX2                !
 ! D21   D(4,3,17,23)           52.4604         estimate D2E/DX2                !
 ! D22   D(21,3,17,18)          52.4934         estimate D2E/DX2                !
 ! D23   D(21,3,17,22)         175.9401         estimate D2E/DX2                !
 ! D24   D(21,3,17,23)         -67.7817         estimate D2E/DX2                !
 ! D25   D(2,3,21,20)           76.2132         estimate D2E/DX2                !
 ! D26   D(2,3,21,30)         -163.0702         estimate D2E/DX2                !
 ! D27   D(2,3,21,31)          -47.6002         estimate D2E/DX2                !
 ! D28   D(4,3,21,20)         -172.3225         estimate D2E/DX2                !
 ! D29   D(4,3,21,30)          -51.6059         estimate D2E/DX2                !
 ! D30   D(4,3,21,31)           63.8641         estimate D2E/DX2                !
 ! D31   D(17,3,21,20)         -50.462          estimate D2E/DX2                !
 ! D32   D(17,3,21,30)          70.2546         estimate D2E/DX2                !
 ! D33   D(17,3,21,31)        -174.2755         estimate D2E/DX2                !
 ! D34   D(3,4,5,6)             36.9669         estimate D2E/DX2                !
 ! D35   D(3,4,5,9)            157.3924         estimate D2E/DX2                !
 ! D36   D(3,4,5,10)           -82.9553         estimate D2E/DX2                !
 ! D37   D(4,5,6,2)            -30.072          estimate D2E/DX2                !
 ! D38   D(4,5,6,7)           -147.0032         estimate D2E/DX2                !
 ! D39   D(4,5,6,8)             85.3606         estimate D2E/DX2                !
 ! D40   D(9,5,6,2)           -146.382          estimate D2E/DX2                !
 ! D41   D(9,5,6,7)             96.6868         estimate D2E/DX2                !
 ! D42   D(9,5,6,8)            -30.9494         estimate D2E/DX2                !
 ! D43   D(10,5,6,2)            89.3225         estimate D2E/DX2                !
 ! D44   D(10,5,6,7)           -27.6087         estimate D2E/DX2                !
 ! D45   D(10,5,6,8)          -155.245          estimate D2E/DX2                !
 ! D46   D(2,6,7,11)            63.262          estimate D2E/DX2                !
 ! D47   D(2,6,7,12)           -56.3006         estimate D2E/DX2                !
 ! D48   D(2,6,7,13)          -176.9298         estimate D2E/DX2                !
 ! D49   D(5,6,7,11)           173.7972         estimate D2E/DX2                !
 ! D50   D(5,6,7,12)            54.2346         estimate D2E/DX2                !
 ! D51   D(5,6,7,13)           -66.3946         estimate D2E/DX2                !
 ! D52   D(8,6,7,11)           -58.252          estimate D2E/DX2                !
 ! D53   D(8,6,7,12)          -177.8145         estimate D2E/DX2                !
 ! D54   D(8,6,7,13)            61.5562         estimate D2E/DX2                !
 ! D55   D(2,6,8,14)          -176.9121         estimate D2E/DX2                !
 ! D56   D(2,6,8,15)            62.779          estimate D2E/DX2                !
 ! D57   D(2,6,8,16)           -57.1568         estimate D2E/DX2                !
 ! D58   D(5,6,8,14)            73.7495         estimate D2E/DX2                !
 ! D59   D(5,6,8,15)           -46.5594         estimate D2E/DX2                !
 ! D60   D(5,6,8,16)          -166.4952         estimate D2E/DX2                !
 ! D61   D(7,6,8,14)           -54.9091         estimate D2E/DX2                !
 ! D62   D(7,6,8,15)          -175.218          estimate D2E/DX2                !
 ! D63   D(7,6,8,16)            64.8462         estimate D2E/DX2                !
 ! D64   D(3,17,18,19)         -56.1052         estimate D2E/DX2                !
 ! D65   D(3,17,18,24)        -177.7457         estimate D2E/DX2                !
 ! D66   D(3,17,18,25)          64.6548         estimate D2E/DX2                !
 ! D67   D(22,17,18,19)       -178.7864         estimate D2E/DX2                !
 ! D68   D(22,17,18,24)         59.5731         estimate D2E/DX2                !
 ! D69   D(22,17,18,25)        -58.0264         estimate D2E/DX2                !
 ! D70   D(23,17,18,19)         62.354          estimate D2E/DX2                !
 ! D71   D(23,17,18,24)        -59.2865         estimate D2E/DX2                !
 ! D72   D(23,17,18,25)       -176.886          estimate D2E/DX2                !
 ! D73   D(17,18,19,20)         57.4322         estimate D2E/DX2                !
 ! D74   D(17,18,19,26)        -63.5278         estimate D2E/DX2                !
 ! D75   D(17,18,19,27)        179.1286         estimate D2E/DX2                !
 ! D76   D(24,18,19,20)        178.3914         estimate D2E/DX2                !
 ! D77   D(24,18,19,26)         57.4314         estimate D2E/DX2                !
 ! D78   D(24,18,19,27)        -59.9123         estimate D2E/DX2                !
 ! D79   D(25,18,19,20)        -63.4609         estimate D2E/DX2                !
 ! D80   D(25,18,19,26)        175.5791         estimate D2E/DX2                !
 ! D81   D(25,18,19,27)         58.2355         estimate D2E/DX2                !
 ! D82   D(18,19,20,21)        -55.3039         estimate D2E/DX2                !
 ! D83   D(18,19,20,28)       -176.31           estimate D2E/DX2                !
 ! D84   D(18,19,20,29)         65.6323         estimate D2E/DX2                !
 ! D85   D(26,19,20,21)         65.4575         estimate D2E/DX2                !
 ! D86   D(26,19,20,28)        -55.5486         estimate D2E/DX2                !
 ! D87   D(26,19,20,29)       -173.6063         estimate D2E/DX2                !
 ! D88   D(27,19,20,21)       -177.1227         estimate D2E/DX2                !
 ! D89   D(27,19,20,28)         61.8711         estimate D2E/DX2                !
 ! D90   D(27,19,20,29)        -56.1865         estimate D2E/DX2                !
 ! D91   D(19,20,21,3)          52.0318         estimate D2E/DX2                !
 ! D92   D(19,20,21,30)        -66.5512         estimate D2E/DX2                !
 ! D93   D(19,20,21,31)        174.6323         estimate D2E/DX2                !
 ! D94   D(28,20,21,3)         173.7915         estimate D2E/DX2                !
 ! D95   D(28,20,21,30)         55.2086         estimate D2E/DX2                !
 ! D96   D(28,20,21,31)        -63.6079         estimate D2E/DX2                !
 ! D97   D(29,20,21,3)         -68.875          estimate D2E/DX2                !
 ! D98   D(29,20,21,30)        172.5421         estimate D2E/DX2                !
 ! D99   D(29,20,21,31)         53.7256         estimate D2E/DX2                !
 --------------------------------------------------------------------------------
 Trust Radius=3.00D-01 FncErr=1.00D-07 GrdErr=1.00D-06 EigMax=2.50D+02 EigMin=1.00D-04
 Number of steps in this run=    186 maximum allowed number of steps=    186.
 GradGradGradGradGradGradGradGradGradGradGradGradGradGradGradGradGradGrad

 Leave Link  103 at Tue Jan  7 16:43:08 2025, MaxMem=  4026531840 cpu:               0.3 elap:               0.2
 (Enter /usr/local/intel/g16/l202.exe)
                          Input orientation:                          
 ---------------------------------------------------------------------
 Center     Atomic      Atomic             Coordinates (Angstroms)
 Number     Number       Type             X           Y           Z
 ---------------------------------------------------------------------
      1          8           0        0.225678   -1.795837    0.200251
      2          7           0        0.572460   -0.535392    0.109744
      3          6           0       -0.381781    0.577580   -0.178605
      4          8           0        0.529195    1.659820   -0.534255
      5          6           0        1.811796    1.419792    0.122127
      6          6           0        2.000883   -0.109770    0.071780
      7          6           0        2.750952   -0.673265    1.283329
      8          6           0        2.634578   -0.574267   -1.253130
      9          1           0        2.567513    1.963461   -0.444228
     10          1           0        1.786898    1.783492    1.157153
     11          1           0        2.754861   -1.765947    1.241622
     12          1           0        2.269040   -0.368264    2.218063
     13          1           0        3.786615   -0.317221    1.286588
     14          1           0        3.699241   -0.318006   -1.274924
     15          1           0        2.139982   -0.095969   -2.104775
     16          1           0        2.531462   -1.659219   -1.350083
     17          6           0       -1.198864    0.947941    1.072320
     18          6           0       -2.295721   -0.091328    1.372953
     19          6           0       -3.220525   -0.271330    0.153858
     20          6           0       -2.415162   -0.693072   -1.090447
     21          6           0       -1.277526    0.302957   -1.391862
     22          1           0       -0.525011    1.064104    1.929203
     23          1           0       -1.655939    1.925424    0.873930
     24          1           0       -2.873442    0.236008    2.244852
     25          1           0       -1.833479   -1.052674    1.624966
     26          1           0       -3.743495    0.675148   -0.048133
     27          1           0       -3.987133   -1.023206    0.372382
     28          1           0       -3.073996   -0.753794   -1.964306
     29          1           0       -1.990574   -1.688106   -0.925335
     30          1           0       -1.697187    1.272076   -1.689222
     31          1           0       -0.653347   -0.052858   -2.217856
 ---------------------------------------------------------------------
                    Distance matrix (angstroms):
                    1          2          3          4          5
     1  O    0.000000
     2  N    1.310409   0.000000
     3  C    2.479041   1.494131   0.000000
     4  O    3.545869   2.288135   1.458632   0.000000
     5  C    3.586383   2.314919   2.368869   1.460656   0.000000
     6  C    2.451669   1.490969   2.492435   2.380040   1.542027
     7  C    2.968204   2.478334   3.676395   3.699068   2.571243
     8  C    3.067140   2.472098   3.402907   3.152866   2.558236
     9  H    4.475697   3.245210   3.269489   2.062776   1.089698
    10  H    4.020530   2.819423   2.818092   2.111391   1.097350
    11  H    2.735345   2.749234   4.165055   4.454572   3.505934
    12  H    3.207001   2.711333   3.696686   3.836071   2.792698
    13  H    4.005834   3.429774   4.508102   4.223144   2.876299
    14  H    4.052871   3.426561   4.319575   3.809144   2.921325
    15  H    3.444888   2.748511   3.243931   2.853763   2.713730
    16  H    2.781877   2.689195   3.855206   3.961145   3.487926
    17  C    3.212186   2.502882   1.539352   2.464557   3.192113
    18  C    3.261600   3.165336   2.553025   3.831985   4.551895
    19  C    3.768632   3.802422   2.981551   4.273551   5.308969
    20  C    3.139431   3.223539   2.565278   3.809815   4.878699
    21  C    3.033048   2.525886   1.532896   2.416776   3.617097
    22  H    3.425211   2.659560   2.167966   2.744969   2.975349
    23  H    4.223992   3.406664   2.132602   2.613109   3.584140
    24  H    4.232414   4.126498   3.492591   4.618291   5.278140
    25  H    2.611940   2.889986   2.831611   4.195484   4.653992
    26  H    4.682072   4.485287   3.365659   4.411550   5.607561
    27  H    4.286533   4.593129   3.983047   5.330838   6.297495
    28  H    4.081545   4.200717   3.494182   4.566570   5.740091
    29  H    2.488036   2.994876   2.877352   4.208419   5.021377
    30  H    4.084068   3.413871   2.120043   2.537927   3.951679
    31  H    3.107717   2.674540   2.151684   2.676973   3.704207
                    6          7          8          9         10
     6  C    0.000000
     7  C    1.532312   0.000000
     8  C    1.540361   2.541056   0.000000
     9  H    2.210344   3.157598   2.664373   0.000000
    10  H    2.192776   2.642154   3.476644   1.790578   0.000000
    11  H    2.163316   1.093485   2.767374   4.097032   3.680028
    12  H    2.178361   1.094985   3.496461   3.551594   2.447048
    13  H    2.169708   1.095160   2.800612   3.111823   2.903208
    14  H    2.177474   2.751385   1.095286   2.678797   3.740100
    15  H    2.181039   3.490817   1.094849   2.679823   3.781166
    16  H    2.168871   2.820486   1.094145   3.734392   4.323525
    17  C    3.515425   4.274796   4.734988   4.185307   3.101631
    18  C    4.489343   5.080905   5.606906   5.583489   4.497699
    19  C    5.224552   6.090632   6.029396   6.233248   5.504832
    20  C    4.603528   5.685415   5.053756   5.683469   5.370511
    21  C    3.613939   4.933385   4.011649   4.294137   4.252077
    22  H    3.347856   3.763979   4.774359   4.000715   2.541359
    23  H    4.261198   5.132395   5.401979   4.424538   3.457381
    24  H    5.347976   5.777985   6.575006   6.310249   5.029569
    25  H    4.243087   4.612773   5.336276   5.722531   4.622750
    26  H    5.798996   6.765268   6.610058   6.453330   5.767702
    27  H    6.064739   6.808383   6.833073   7.249167   6.467832
    28  H    5.505889   6.669605   5.755503   6.443659   6.309486
    29  H    4.406485   5.328242   4.768660   5.860167   5.536971
    30  H    4.322771   5.692658   4.728990   4.496186   4.527941
    31  H    3.505796   4.922647   3.465980   4.193476   4.551666
                   11         12         13         14         15
    11  H    0.000000
    12  H    1.772844   0.000000
    13  H    1.779142   1.781372   0.000000
    14  H    3.053095   3.774779   2.563002   0.000000
    15  H    3.790155   4.333328   3.776466   1.780236   0.000000
    16  H    2.603504   3.803564   3.213783   1.779946   1.779485
    17  C    4.798520   3.882201   5.147965   5.577061   4.725629
    18  C    5.322591   4.650586   6.087142   6.557607   5.636495
    19  C    6.254786   5.865634   7.098253   7.065887   5.819554
    20  C    5.772239   5.743996   6.652338   6.128673   4.704756
    21  C    5.241731   5.104922   5.762312   5.016720   3.513794
    22  H    4.386287   3.153068   4.572869   5.479139   4.972015
    23  H    5.763382   4.740586   5.900944   6.191002   5.231418
    24  H    6.057400   5.177932   6.751347   7.476357   6.645591
    25  H    4.659246   4.201291   5.678102   6.289681   5.533050
    26  H    7.060527   6.509603   7.711604   7.608265   6.280103
    27  H    6.838255   6.555546   7.859093   7.892482   6.673651
    28  H    6.728893   6.796240   7.604399   6.822162   5.257189
    29  H    5.217367   5.455937   6.336232   5.862882   4.581209
    30  H    6.135158   5.804184   6.438431   5.641049   4.094887
    31  H    5.149616   5.321391   5.662533   4.461440   2.795949
                   16         17         18         19         20
    16  H    0.000000
    17  C    5.155643   0.000000
    18  C    5.759766   1.540635   0.000000
    19  C    6.105197   2.533240   1.540732   0.000000
    20  C    5.046775   2.974872   2.538642   1.541029   0.000000
    21  C    4.284889   2.548408   2.972606   2.548392   1.541798
    22  H    5.245210   1.096276   2.186287   3.492997   3.972232
    23  H    5.943923   1.097155   2.173852   2.791444   3.360315
    24  H    6.762280   2.164692   1.095955   2.179476   3.492482
    25  H    5.317097   2.170395   1.096068   2.167615   2.800203
    26  H    6.820515   2.793739   2.168645   1.100054   2.173226
    27  H    6.772258   3.485653   2.174951   1.095791   2.172545
    28  H    5.711237   3.953874   3.490254   2.177352   1.096074
    29  H    4.542032   3.400908   2.815127   2.164415   1.094363
    30  H    5.156450   2.824802   3.405001   2.845980   2.176195
    31  H    3.671026   3.482017   3.948770   3.501880   2.187445
                   21         22         23         24         25
    21  C    0.000000
    22  H    3.489283   0.000000
    23  H    2.812367   1.770444   0.000000
    24  H    3.972042   2.510081   2.493164   0.000000
    25  H    3.353814   2.507070   3.076466   1.768186   0.000000
    26  H    2.832867   3.797339   2.602168   2.491509   3.071285
    27  H    3.494744   4.332071   3.792154   2.516361   2.491598
    28  H    2.161416   4.996148   4.152671   4.328619   3.809342
    29  H    2.165737   4.227401   4.050547   3.812054   2.632962
    30  H    1.097146   3.809232   2.645433   4.234850   4.050541
    31  H    1.094746   4.296763   3.804988   4.992798   4.142418
                   26         27         28         29         30
    26  H    0.000000
    27  H    1.766522   0.000000
    28  H    2.482302   2.523195   0.000000
    29  H    3.070372   2.472329   1.768107   0.000000
    30  H    2.690144   3.842185   2.464837   3.071201   0.000000
    31  H    3.845349   4.331863   2.532813   2.476454   1.767627
                   31
    31  H    0.000000
 Stoichiometry    C10H18NO2(2)
 Framework group  C1[X(C10H18NO2)]
 Deg. of freedom    87
 Full point group                 C1      NOp   1
 Largest Abelian subgroup         C1      NOp   1
 Largest concise Abelian subgroup C1      NOp   1
                         Standard orientation:                         
 ---------------------------------------------------------------------
 Center     Atomic      Atomic             Coordinates (Angstroms)
 Number     Number       Type             X           Y           Z
 ---------------------------------------------------------------------
      1          8           0        0.225678   -1.795837    0.200251
      2          7           0        0.572460   -0.535392    0.109744
      3          6           0       -0.381781    0.577580   -0.178605
      4          8           0        0.529195    1.659820   -0.534255
      5          6           0        1.811796    1.419792    0.122127
      6          6           0        2.000883   -0.109770    0.071780
      7          6           0        2.750952   -0.673265    1.283329
      8          6           0        2.634578   -0.574267   -1.253130
      9          1           0        2.567513    1.963461   -0.444228
     10          1           0        1.786898    1.783492    1.157153
     11          1           0        2.754861   -1.765947    1.241622
     12          1           0        2.269040   -0.368264    2.218063
     13          1           0        3.786615   -0.317221    1.286588
     14          1           0        3.699241   -0.318006   -1.274924
     15          1           0        2.139982   -0.095969   -2.104775
     16          1           0        2.531462   -1.659219   -1.350083
     17          6           0       -1.198864    0.947941    1.072320
     18          6           0       -2.295721   -0.091328    1.372953
     19          6           0       -3.220525   -0.271330    0.153858
     20          6           0       -2.415162   -0.693072   -1.090447
     21          6           0       -1.277526    0.302957   -1.391862
     22          1           0       -0.525011    1.064104    1.929203
     23          1           0       -1.655939    1.925424    0.873930
     24          1           0       -2.873442    0.236008    2.244852
     25          1           0       -1.833479   -1.052674    1.624966
     26          1           0       -3.743495    0.675148   -0.048133
     27          1           0       -3.987133   -1.023206    0.372382
     28          1           0       -3.073996   -0.753794   -1.964306
     29          1           0       -1.990574   -1.688106   -0.925335
     30          1           0       -1.697187    1.272076   -1.689222
     31          1           0       -0.653347   -0.052858   -2.217856
 ---------------------------------------------------------------------
 Rotational constants (GHZ):           1.4712547           0.5929679           0.5781352
 Leave Link  202 at Tue Jan  7 16:43:09 2025, MaxMem=  4026531840 cpu:               0.1 elap:               0.3
 (Enter /usr/local/intel/g16/l301.exe)
 Standard basis: def2TZVP (5D, 7F)
 Ernie: Thresh=  0.10000D-02 Tol=  0.10000D-05 Strict=F.
 There are   576 symmetry adapted cartesian basis functions of A   symmetry.
 There are   511 symmetry adapted basis functions of A   symmetry.
   511 basis functions,   807 primitive gaussians,   576 cartesian basis functions
    51 alpha electrons       50 beta electrons
       nuclear repulsion energy       915.0618979843 Hartrees.
 IExCor= 4336 DFT=T Ex+Corr=M062X ExCW=0 ScaHFX=  0.540000
 ScaDFX=  1.000000  1.000000  1.000000  1.000000 ScalE2=  1.000000  1.000000
 IRadAn=      5 IRanWt=     -1 IRanGd=            0 ICorTp=0 IEmpDi=  4
 NAtoms=   31 NActive=   31 NUniq=   31 SFac= 1.00D+00 NAtFMM=   60 NAOKFM=F Big=F
 Integral buffers will be    131072 words long.
 Raffenetti 2 integral format.
 Two-electron integral symmetry is turned on.
 Leave Link  301 at Tue Jan  7 16:43:09 2025, MaxMem=  4026531840 cpu:               1.0 elap:               0.2
 (Enter /usr/local/intel/g16/l302.exe)
 NPDir=0 NMtPBC=     1 NCelOv=     1 NCel=       1 NClECP=     1 NCelD=      1
         NCelK=      1 NCelE2=     1 NClLst=     1 CellRange=     0.0.
 One-electron integrals computed using PRISM.
 One-electron integral symmetry used in STVInt
   1 Symmetry operations used in ECPInt.
 ECPInt:  NShTT=   23220 NPrTT=   68236 LenC2=   22289 LenP2D=   50294.
 LDataN:  DoStor=T MaxTD1= 6 Len=  172
 NBasis=   511 RedAO= T EigKep=  5.10D-05  NBF=   511
 NBsUse=   511 1.00D-06 EigRej= -1.00D+00 NBFU=   511
 Precomputing XC quadrature grid using
 IXCGrd= 4 IRadAn=           5 IRanWt=          -1 IRanGd=           0 AccXCQ= 0.00D+00.
 Generated NRdTot=       0 NPtTot=           0 NUsed=           0 NTot=          32
 NSgBfM=   573   573   573   573   573 MxSgAt=    31 MxSgA2=    31.
 Leave Link  302 at Tue Jan  7 16:43:10 2025, MaxMem=  4026531840 cpu:              13.7 elap:               0.7
 (Enter /usr/local/intel/g16/l303.exe)
 DipDrv:  MaxL=1.
 Leave Link  303 at Tue Jan  7 16:43:10 2025, MaxMem=  4026531840 cpu:               2.1 elap:               0.1
 (Enter /usr/local/intel/g16/l401.exe)
 ExpMin= 9.52D-02 ExpMax= 2.70D+04 ExpMxC= 9.22D+02 IAcc=3 IRadAn=         5 AccDes= 0.00D+00
 Harris functional with IExCor= 1009 and IRadAn=       5 diagonalized for initial guess.
 HarFok:  IExCor= 1009 AccDes= 0.00D+00 IRadAn=         5 IDoV= 1 UseB2=F ITyADJ=14
 ICtDFT=  3500011 ScaDFX=  1.000000  1.000000  1.000000  1.000000
 FoFCou: FMM=F IPFlag=           0 FMFlag=      100000 FMFlg1=           0
         NFxFlg=           0 DoJE=T BraDBF=F KetDBF=T FulRan=T
         wScrn=  0.000000 ICntrl=       500 IOpCl=  0 I1Cent=   200000004 NGrid=           0
         NMat0=    1 NMatS0=      1 NMatT0=    0 NMatD0=    1 NMtDS0=    0 NMtDT0=    0
 Petite list used in FoFCou.
 Harris En= -596.762043330322    
 JPrj=0 DoOrth=F DoCkMO=F.
 Initial guess <Sx>= 0.0000 <Sy>= 0.0000 <Sz>= 0.5000 <S**2>= 0.7500 S= 0.5000
 Leave Link  401 at Tue Jan  7 16:43:13 2025, MaxMem=  4026531840 cpu:              53.6 elap:               2.7
 (Enter /usr/local/intel/g16/l502.exe)
 Integral symmetry usage will be decided dynamically.
 UHF open shell SCF:
 Using DIIS extrapolation, IDIIS=  1040.
 NGot=  4026531840 LenX=  4025850746 LenY=  4025518394
 Requested convergence on RMS density matrix=1.00D-08 within 128 cycles.
 Requested convergence on MAX density matrix=1.00D-06.
 Requested convergence on             energy=1.00D-06.
 No special actions if energy rises.
 Fock matrices will be formed incrementally for  20 cycles.
 Integral accuracy reduced to 1.0D-05 until final iterations.

 Cycle   1  Pass 0  IDiag  1:
 FoFJK:  IHMeth= 1 ICntrl=       0 DoSepK=F KAlg= 0 I1Cent=           0 FoldK=F
 IRaf= 920000000 NMat=       1 IRICut=       1 DoRegI=T DoRafI=F ISym2E= 0 IDoP0=0 IntGTp=1.
 FoFCou: FMM=F IPFlag=           0 FMFlag=      100000 FMFlg1=           0
         NFxFlg=           0 DoJE=F BraDBF=F KetDBF=F FulRan=T
         wScrn=  0.000000 ICntrl=         0 IOpCl=  1 I1Cent=           0 NGrid=           0
         NMat0=    1 NMatS0=      1 NMatT0=    0 NMatD0=    1 NMtDS0=    0 NMtDT0=    0
 Symmetry not used in FoFCou.
 E= -596.579355508121    
 DIIS: error= 2.28D-02 at cycle   1 NSaved=   1.
 NSaved= 1 IEnMin= 1 EnMin= -596.579355508121     IErMin= 1 ErrMin= 2.28D-02
 ErrMax= 2.28D-02  0.00D+00 EMaxC= 1.00D-01 BMatC= 2.05D+00 BMatP= 2.05D+00
 IDIUse=3 WtCom= 7.72D-01 WtEn= 2.28D-01
 Coeff-Com:  0.100D+01
 Coeff-En:   0.100D+01
 Coeff:      0.100D+01
 Gap=     0.388 Goal=   None    Shift=    0.000
 Gap=     0.230 Goal=   None    Shift=    0.000
 GapD=    0.230 DampG=1.000 DampE=0.500 DampFc=0.5000 IDamp=-1.
 Damping current iteration by 5.00D-01
 RMSDP=2.60D-03 MaxDP=1.97D-01              OVMax= 1.62D-01

 Cycle   2  Pass 0  IDiag  1:
 RMSU=  1.29D-03    CP:  9.83D-01
 E= -596.782615272366     Delta-E=       -0.203259764245 Rises=F Damp=T
 DIIS: error= 5.09D-03 at cycle   2 NSaved=   2.
 NSaved= 2 IEnMin= 2 EnMin= -596.782615272366     IErMin= 2 ErrMin= 5.09D-03
 ErrMax= 5.09D-03  0.00D+00 EMaxC= 1.00D-01 BMatC= 1.77D-01 BMatP= 2.05D+00
 IDIUse=3 WtCom= 9.49D-01 WtEn= 5.09D-02
 Coeff-Com: -0.337D-01 0.103D+01
 Coeff-En:   0.000D+00 0.100D+01
 Coeff:     -0.320D-01 0.103D+01
 Gap=     0.346 Goal=   None    Shift=    0.000
 Gap=     0.318 Goal=   None    Shift=    0.000
 RMSDP=9.60D-04 MaxDP=4.40D-02 DE=-2.03D-01 OVMax= 1.18D-01

 Cycle   3  Pass 0  IDiag  1:
 RMSU=  9.50D-04    CP:  9.70D-01  1.08D+00
 E= -596.980373750301     Delta-E=       -0.197758477934 Rises=F Damp=F
 DIIS: error= 5.39D-03 at cycle   3 NSaved=   3.
 NSaved= 3 IEnMin= 3 EnMin= -596.980373750301     IErMin= 2 ErrMin= 5.09D-03
 ErrMax= 5.39D-03  0.00D+00 EMaxC= 1.00D-01 BMatC= 1.07D-01 BMatP= 1.77D-01
 IDIUse=3 WtCom= 9.46D-01 WtEn= 5.39D-02
 Coeff-Com: -0.845D-01 0.471D+00 0.614D+00
 Coeff-En:   0.000D+00 0.000D+00 0.100D+01
 Coeff:     -0.799D-01 0.445D+00 0.634D+00
 Gap=     0.331 Goal=   None    Shift=    0.000
 Gap=     0.300 Goal=   None    Shift=    0.000
 RMSDP=3.43D-04 MaxDP=2.74D-02 DE=-1.98D-01 OVMax= 6.51D-02

 Cycle   4  Pass 0  IDiag  1:
 RMSU=  3.15D-04    CP:  9.72D-01  1.14D+00  8.84D-01
 E= -596.995090719427     Delta-E=       -0.014716969127 Rises=F Damp=F
 DIIS: error= 2.90D-03 at cycle   4 NSaved=   4.
 NSaved= 4 IEnMin= 4 EnMin= -596.995090719427     IErMin= 4 ErrMin= 2.90D-03
 ErrMax= 2.90D-03  0.00D+00 EMaxC= 1.00D-01 BMatC= 2.94D-02 BMatP= 1.07D-01
 IDIUse=3 WtCom= 9.71D-01 WtEn= 2.90D-02
 Coeff-Com: -0.330D-01 0.967D-01 0.373D+00 0.563D+00
 Coeff-En:   0.000D+00 0.000D+00 0.219D+00 0.781D+00
 Coeff:     -0.321D-01 0.939D-01 0.369D+00 0.569D+00
 Gap=     0.325 Goal=   None    Shift=    0.000
 Gap=     0.300 Goal=   None    Shift=    0.000
 RMSDP=1.68D-04 MaxDP=1.35D-02 DE=-1.47D-02 OVMax= 1.53D-02

 Cycle   5  Pass 0  IDiag  1:
 RMSU=  1.07D-04    CP:  9.69D-01  1.12D+00  9.38D-01  6.35D-01
 E= -597.000463124972     Delta-E=       -0.005372405545 Rises=F Damp=F
 DIIS: error= 5.28D-04 at cycle   5 NSaved=   5.
 NSaved= 5 IEnMin= 5 EnMin= -597.000463124972     IErMin= 5 ErrMin= 5.28D-04
 ErrMax= 5.28D-04  0.00D+00 EMaxC= 1.00D-01 BMatC= 5.59D-04 BMatP= 2.94D-02
 IDIUse=3 WtCom= 9.95D-01 WtEn= 5.28D-03
 Coeff-Com: -0.571D-02 0.693D-02 0.103D+00 0.194D+00 0.702D+00
 Coeff-En:   0.000D+00 0.000D+00 0.000D+00 0.000D+00 0.100D+01
 Coeff:     -0.568D-02 0.689D-02 0.102D+00 0.193D+00 0.704D+00
 Gap=     0.322 Goal=   None    Shift=    0.000
 Gap=     0.301 Goal=   None    Shift=    0.000
 RMSDP=3.99D-05 MaxDP=2.75D-03 DE=-5.37D-03 OVMax= 5.94D-03

 Cycle   6  Pass 0  IDiag  1:
 RMSU=  3.25D-05    CP:  9.69D-01  1.12D+00  9.60D-01  6.59D-01  9.76D-01
 E= -597.000615401506     Delta-E=       -0.000152276534 Rises=F Damp=F
 DIIS: error= 1.76D-04 at cycle   6 NSaved=   6.
 NSaved= 6 IEnMin= 6 EnMin= -597.000615401506     IErMin= 6 ErrMin= 1.76D-04
 ErrMax= 1.76D-04  0.00D+00 EMaxC= 1.00D-01 BMatC= 9.59D-05 BMatP= 5.59D-04
 IDIUse=3 WtCom= 9.98D-01 WtEn= 1.76D-03
 Coeff-Com:  0.293D-02-0.102D-01-0.103D-01-0.226D-01 0.198D+00 0.842D+00
 Coeff-En:   0.000D+00 0.000D+00 0.000D+00 0.000D+00 0.000D+00 0.100D+01
 Coeff:      0.293D-02-0.102D-01-0.103D-01-0.226D-01 0.197D+00 0.843D+00
 Gap=     0.323 Goal=   None    Shift=    0.000
 Gap=     0.301 Goal=   None    Shift=    0.000
 RMSDP=2.87D-05 MaxDP=3.13D-03 DE=-1.52D-04 OVMax= 2.61D-03

 Cycle   7  Pass 0  IDiag  1:
 RMSU=  1.38D-05    CP:  9.68D-01  1.11D+00  9.69D-01  6.58D-01  1.17D+00
                    CP:  1.28D+00
 E= -597.000652268085     Delta-E=       -0.000036866579 Rises=F Damp=F
 DIIS: error= 8.86D-05 at cycle   7 NSaved=   7.
 NSaved= 7 IEnMin= 7 EnMin= -597.000652268085     IErMin= 7 ErrMin= 8.86D-05
 ErrMax= 8.86D-05  0.00D+00 EMaxC= 1.00D-01 BMatC= 2.04D-05 BMatP= 9.59D-05
 IDIUse=1 WtCom= 1.00D+00 WtEn= 0.00D+00
 Coeff-Com:  0.222D-02-0.426D-02-0.219D-01-0.566D-01-0.109D+00 0.175D+00
 Coeff-Com:  0.101D+01
 Coeff:      0.222D-02-0.426D-02-0.219D-01-0.566D-01-0.109D+00 0.175D+00
 Coeff:      0.101D+01
 Gap=     0.324 Goal=   None    Shift=    0.000
 Gap=     0.302 Goal=   None    Shift=    0.000
 RMSDP=1.77D-05 MaxDP=1.98D-03 DE=-3.69D-05 OVMax= 2.45D-03

 Cycle   8  Pass 0  IDiag  1:
 RMSU=  6.56D-06    CP:  9.68D-01  1.11D+00  9.74D-01  6.53D-01  1.27D+00
                    CP:  1.52D+00  1.32D+00
 E= -597.000664378247     Delta-E=       -0.000012110162 Rises=F Damp=F
 DIIS: error= 3.97D-05 at cycle   8 NSaved=   8.
 NSaved= 8 IEnMin= 8 EnMin= -597.000664378247     IErMin= 8 ErrMin= 3.97D-05
 ErrMax= 3.97D-05  0.00D+00 EMaxC= 1.00D-01 BMatC= 3.68D-06 BMatP= 2.04D-05
 IDIUse=1 WtCom= 1.00D+00 WtEn= 0.00D+00
 Coeff-Com:  0.215D-03 0.225D-03-0.202D-02-0.125D-01-0.464D-01-0.789D-01
 Coeff-Com:  0.233D+00 0.906D+00
 Coeff:      0.215D-03 0.225D-03-0.202D-02-0.125D-01-0.464D-01-0.789D-01
 Coeff:      0.233D+00 0.906D+00
 Gap=     0.324 Goal=   None    Shift=    0.000
 Gap=     0.302 Goal=   None    Shift=    0.000
 RMSDP=7.18D-06 MaxDP=8.18D-04 DE=-1.21D-05 OVMax= 8.17D-04

 Initial convergence to 1.0D-05 achieved.  Increase integral accuracy.
 Cycle   9  Pass 1  IDiag  1:
 E= -597.000603796736     Delta-E=        0.000060581510 Rises=F Damp=F
 DIIS: error= 9.67D-05 at cycle   1 NSaved=   1.
 NSaved= 1 IEnMin= 1 EnMin= -597.000603796736     IErMin= 1 ErrMin= 9.67D-05
 ErrMax= 9.67D-05  0.00D+00 EMaxC= 1.00D-01 BMatC= 1.97D-05 BMatP= 1.97D-05
 IDIUse=1 WtCom= 1.00D+00 WtEn= 0.00D+00
 Coeff-Com:  0.100D+01
 Coeff:      0.100D+01
 Gap=     0.324 Goal=   None    Shift=    0.000
 Gap=     0.302 Goal=   None    Shift=    0.000
 RMSDP=7.18D-06 MaxDP=8.18D-04 DE= 6.06D-05 OVMax= 2.53D-04

 Cycle  10  Pass 1  IDiag  1:
 RMSU=  6.83D-05    CP:  1.00D+00
 E= -597.000606236104     Delta-E=       -0.000002439367 Rises=F Damp=F
 DIIS: error= 1.39D-05 at cycle   2 NSaved=   2.
 NSaved= 2 IEnMin= 2 EnMin= -597.000606236104     IErMin= 2 ErrMin= 1.39D-05
 ErrMax= 1.39D-05  0.00D+00 EMaxC= 1.00D-01 BMatC= 8.53D-07 BMatP= 1.97D-05
 IDIUse=1 WtCom= 1.00D+00 WtEn= 0.00D+00
 Coeff-Com:  0.508D-01 0.949D+00
 Coeff:      0.508D-01 0.949D+00
 Gap=     0.324 Goal=   None    Shift=    0.000
 Gap=     0.302 Goal=   None    Shift=    0.000
 RMSDP=2.97D-06 MaxDP=1.41D-04 DE=-2.44D-06 OVMax= 3.31D-04

 Cycle  11  Pass 1  IDiag  1:
 RMSU=  1.87D-06    CP:  1.00D+00  1.03D+00
 E= -597.000606251871     Delta-E=       -0.000000015768 Rises=F Damp=F
 DIIS: error= 2.17D-05 at cycle   3 NSaved=   3.
 NSaved= 3 IEnMin= 3 EnMin= -597.000606251871     IErMin= 2 ErrMin= 1.39D-05
 ErrMax= 2.17D-05  0.00D+00 EMaxC= 1.00D-01 BMatC= 1.46D-06 BMatP= 8.53D-07
 IDIUse=1 WtCom= 1.00D+00 WtEn= 0.00D+00
 Coeff-Com: -0.112D-01 0.576D+00 0.435D+00
 Coeff:     -0.112D-01 0.576D+00 0.435D+00
 Gap=     0.324 Goal=   None    Shift=    0.000
 Gap=     0.302 Goal=   None    Shift=    0.000
 RMSDP=1.06D-06 MaxDP=7.36D-05 DE=-1.58D-08 OVMax= 9.27D-05

 Cycle  12  Pass 1  IDiag  1:
 RMSU=  9.33D-07    CP:  1.00D+00  1.04D+00  7.77D-01
 E= -597.000606517890     Delta-E=       -0.000000266018 Rises=F Damp=F
 DIIS: error= 4.72D-06 at cycle   4 NSaved=   4.
 NSaved= 4 IEnMin= 4 EnMin= -597.000606517890     IErMin= 4 ErrMin= 4.72D-06
 ErrMax= 4.72D-06  0.00D+00 EMaxC= 1.00D-01 BMatC= 3.92D-08 BMatP= 8.53D-07
 IDIUse=1 WtCom= 1.00D+00 WtEn= 0.00D+00
 Coeff-Com: -0.637D-02 0.132D+00 0.892D-01 0.785D+00
 Coeff:     -0.637D-02 0.132D+00 0.892D-01 0.785D+00
 Gap=     0.324 Goal=   None    Shift=    0.000
 Gap=     0.302 Goal=   None    Shift=    0.000
 RMSDP=4.41D-07 MaxDP=3.64D-05 DE=-2.66D-07 OVMax= 8.89D-05

 Cycle  13  Pass 1  IDiag  1:
 RMSU=  3.20D-07    CP:  1.00D+00  1.04D+00  8.46D-01  1.28D+00
 E= -597.000606538628     Delta-E=       -0.000000020739 Rises=F Damp=F
 DIIS: error= 4.89D-06 at cycle   5 NSaved=   5.
 NSaved= 5 IEnMin= 5 EnMin= -597.000606538628     IErMin= 4 ErrMin= 4.72D-06
 ErrMax= 4.89D-06  0.00D+00 EMaxC= 1.00D-01 BMatC= 3.78D-08 BMatP= 3.92D-08
 IDIUse=1 WtCom= 1.00D+00 WtEn= 0.00D+00
 Coeff-Com:  0.554D-02-0.359D+00-0.352D+00 0.501D+00 0.120D+01
 Coeff:      0.554D-02-0.359D+00-0.352D+00 0.501D+00 0.120D+01
 Gap=     0.324 Goal=   None    Shift=    0.000
 Gap=     0.302 Goal=   None    Shift=    0.000
 RMSDP=8.25D-07 MaxDP=7.24D-05 DE=-2.07D-08 OVMax= 1.02D-04

 Cycle  14  Pass 1  IDiag  1:
 RMSU=  3.17D-07    CP:  1.00D+00  1.04D+00  9.76D-01  2.01D+00  1.64D+00
 E= -597.000606559116     Delta-E=       -0.000000020488 Rises=F Damp=F
 DIIS: error= 4.64D-07 at cycle   6 NSaved=   6.
 NSaved= 6 IEnMin= 6 EnMin= -597.000606559116     IErMin= 6 ErrMin= 4.64D-07
 ErrMax= 4.64D-07  0.00D+00 EMaxC= 1.00D-01 BMatC= 1.14D-09 BMatP= 3.78D-08
 IDIUse=1 WtCom= 1.00D+00 WtEn= 0.00D+00
 Coeff-Com:  0.222D-02-0.123D+00-0.123D+00 0.118D+00 0.367D+00 0.759D+00
 Coeff:      0.222D-02-0.123D+00-0.123D+00 0.118D+00 0.367D+00 0.759D+00
 Gap=     0.324 Goal=   None    Shift=    0.000
 Gap=     0.302 Goal=   None    Shift=    0.000
 RMSDP=1.04D-07 MaxDP=7.75D-06 DE=-2.05D-08 OVMax= 1.46D-05

 Cycle  15  Pass 1  IDiag  1:
 RMSU=  4.83D-08    CP:  1.00D+00  1.04D+00  9.77D-01  2.09D+00  1.76D+00
                    CP:  1.12D+00
 E= -597.000606559690     Delta-E=       -0.000000000573 Rises=F Damp=F
 DIIS: error= 2.42D-07 at cycle   7 NSaved=   7.
 NSaved= 7 IEnMin= 7 EnMin= -597.000606559690     IErMin= 7 ErrMin= 2.42D-07
 ErrMax= 2.42D-07  0.00D+00 EMaxC= 1.00D-01 BMatC= 2.32D-10 BMatP= 1.14D-09
 IDIUse=1 WtCom= 1.00D+00 WtEn= 0.00D+00
 Coeff-Com: -0.138D-03 0.166D-01 0.139D-01-0.402D-01-0.785D-01 0.292D+00
 Coeff-Com:  0.797D+00
 Coeff:     -0.138D-03 0.166D-01 0.139D-01-0.402D-01-0.785D-01 0.292D+00
 Coeff:      0.797D+00
 Gap=     0.324 Goal=   None    Shift=    0.000
 Gap=     0.302 Goal=   None    Shift=    0.000
 RMSDP=3.76D-08 MaxDP=2.33D-06 DE=-5.73D-10 OVMax= 9.44D-06

 Cycle  16  Pass 1  IDiag  1:
 RMSU=  2.31D-08    CP:  1.00D+00  1.04D+00  9.76D-01  2.11D+00  1.79D+00
                    CP:  1.19D+00  1.02D+00
 E= -597.000606559810     Delta-E=       -0.000000000121 Rises=F Damp=F
 DIIS: error= 1.49D-07 at cycle   8 NSaved=   8.
 NSaved= 8 IEnMin= 8 EnMin= -597.000606559810     IErMin= 8 ErrMin= 1.49D-07
 ErrMax= 1.49D-07  0.00D+00 EMaxC= 1.00D-01 BMatC= 2.68D-11 BMatP= 2.32D-10
 IDIUse=1 WtCom= 1.00D+00 WtEn= 0.00D+00
 Coeff-Com: -0.250D-03 0.166D-01 0.157D-01-0.220D-01-0.582D-01 0.939D-02
 Coeff-Com:  0.210D+00 0.828D+00
 Coeff:     -0.250D-03 0.166D-01 0.157D-01-0.220D-01-0.582D-01 0.939D-02
 Coeff:      0.210D+00 0.828D+00
 Gap=     0.324 Goal=   None    Shift=    0.000
 Gap=     0.302 Goal=   None    Shift=    0.000
 RMSDP=1.44D-08 MaxDP=1.22D-06 DE=-1.21D-10 OVMax= 5.81D-06

 Cycle  17  Pass 1  IDiag  1:
 RMSU=  9.25D-09    CP:  1.00D+00  1.04D+00  9.75D-01  2.11D+00  1.79D+00
                    CP:  1.20D+00  1.16D+00  1.30D+00
 E= -597.000606559829     Delta-E=       -0.000000000019 Rises=F Damp=F
 DIIS: error= 1.08D-07 at cycle   9 NSaved=   9.
 NSaved= 9 IEnMin= 9 EnMin= -597.000606559829     IErMin= 9 ErrMin= 1.08D-07
 ErrMax= 1.08D-07  0.00D+00 EMaxC= 1.00D-01 BMatC= 1.07D-11 BMatP= 2.68D-11
 IDIUse=1 WtCom= 1.00D+00 WtEn= 0.00D+00
 Coeff-Com: -0.363D-04 0.300D-03 0.876D-03 0.421D-02 0.430D-02-0.759D-01
 Coeff-Com: -0.154D+00 0.237D+00 0.983D+00
 Coeff:     -0.363D-04 0.300D-03 0.876D-03 0.421D-02 0.430D-02-0.759D-01
 Coeff:     -0.154D+00 0.237D+00 0.983D+00
 Gap=     0.324 Goal=   None    Shift=    0.000
 Gap=     0.302 Goal=   None    Shift=    0.000
 RMSDP=1.14D-08 MaxDP=1.19D-06 DE=-1.91D-11 OVMax= 5.81D-06

 Cycle  18  Pass 1  IDiag  1:
 RMSU=  5.80D-09    CP:  1.00D+00  1.04D+00  9.74D-01  2.11D+00  1.78D+00
                    CP:  1.20D+00  1.23D+00  1.65D+00  1.45D+00
 E= -597.000606559861     Delta-E=       -0.000000000032 Rises=F Damp=F
 DIIS: error= 6.34D-08 at cycle  10 NSaved=  10.
 NSaved=10 IEnMin=10 EnMin= -597.000606559861     IErMin=10 ErrMin= 6.34D-08
 ErrMax= 6.34D-08  0.00D+00 EMaxC= 1.00D-01 BMatC= 4.58D-12 BMatP= 1.07D-11
 IDIUse=1 WtCom= 1.00D+00 WtEn= 0.00D+00
 Coeff-Com:  0.114D-03-0.839D-02-0.747D-02 0.127D-01 0.325D-01-0.398D-01
 Coeff-Com: -0.175D+00-0.311D+00 0.433D+00 0.106D+01
 Coeff:      0.114D-03-0.839D-02-0.747D-02 0.127D-01 0.325D-01-0.398D-01
 Coeff:     -0.175D+00-0.311D+00 0.433D+00 0.106D+01
 Gap=     0.324 Goal=   None    Shift=    0.000
 Gap=     0.302 Goal=   None    Shift=    0.000
 RMSDP=1.07D-08 MaxDP=1.16D-06 DE=-3.18D-11 OVMax= 5.71D-06

 Cycle  19  Pass 1  IDiag  1:
 RMSU=  3.60D-09    CP:  1.00D+00  1.04D+00  9.74D-01  2.11D+00  1.78D+00
                    CP:  1.20D+00  1.28D+00  1.93D+00  2.01D+00  1.81D+00
 E= -597.000606559859     Delta-E=        0.000000000002 Rises=F Damp=F
 DIIS: error= 2.46D-08 at cycle  11 NSaved=  11.
 NSaved=11 IEnMin=10 EnMin= -597.000606559861     IErMin=11 ErrMin= 2.46D-08
 ErrMax= 2.46D-08  0.00D+00 EMaxC= 1.00D-01 BMatC= 9.08D-13 BMatP= 4.58D-12
 IDIUse=1 WtCom= 1.00D+00 WtEn= 0.00D+00
 Coeff-Com:  0.467D-04-0.282D-02-0.257D-02 0.273D-02 0.976D-02 0.728D-02
 Coeff-Com: -0.133D-01-0.169D+00-0.126D+00 0.357D+00 0.937D+00
 Coeff:      0.467D-04-0.282D-02-0.257D-02 0.273D-02 0.976D-02 0.728D-02
 Coeff:     -0.133D-01-0.169D+00-0.126D+00 0.357D+00 0.937D+00
 Gap=     0.324 Goal=   None    Shift=    0.000
 Gap=     0.302 Goal=   None    Shift=    0.000
 RMSDP=4.41D-09 MaxDP=4.86D-07 DE= 2.27D-12 OVMax= 2.45D-06

 SCF Done:  E(UM062X) =  -597.000606560     A.U. after   19 cycles
            NFock= 19  Conv=0.44D-08     -V/T= 2.0060
 <Sx>= 0.0000 <Sy>= 0.0000 <Sz>= 0.5000 <S**2>= 0.7563 S= 0.5032
 <L.S>=  0.00000000000    
 KE= 5.934669133058D+02 PE=-3.220474742618D+03 EE= 1.114945324768D+03
 Annihilation of the first spin contaminant:
 S**2 before annihilation     0.7563,   after     0.7500
 Leave Link  502 at Tue Jan  7 16:49:54 2025, MaxMem=  4026531840 cpu:            8020.6 elap:             401.1
 (Enter /usr/local/intel/g16/l601.exe)
 Copying SCF densities to generalized density rwf, IOpCl= 1 IROHF=0.

 **********************************************************************

            Population analysis using the SCF Density.

 **********************************************************************

 Orbital symmetries:
 Alpha Orbitals:
       Occupied  (A) (A) (A) (A) (A) (A) (A) (A) (A) (A) (A) (A)
                 (A) (A) (A) (A) (A) (A) (A) (A) (A) (A) (A) (A)
                 (A) (A) (A) (A) (A) (A) (A) (A) (A) (A) (A) (A)
                 (A) (A) (A) (A) (A) (A) (A) (A) (A) (A) (A) (A)
                 (A) (A) (A)
       Virtual   (A) (A) (A) (A) (A) (A) (A) (A) (A) (A) (A) (A)
                 (A) (A) (A) (A) (A) (A) (A) (A) (A) (A) (A) (A)
                 (A) (A) (A) (A) (A) (A) (A) (A) (A) (A) (A) (A)
                 (A) (A) (A) (A) (A) (A) (A) (A) (A) (A) (A) (A)
                 (A) (A) (A) (A) (A) (A) (A) (A) (A) (A) (A) (A)
                 (A) (A) (A) (A) (A) (A) (A) (A) (A) (A) (A) (A)
                 (A) (A) (A) (A) (A) (A) (A) (A) (A) (A) (A) (A)
                 (A) (A) (A) (A) (A) (A) (A) (A) (A) (A) (A) (A)
                 (A) (A) (A) (A) (A) (A) (A) (A) (A) (A) (A) (A)
                 (A) (A) (A) (A) (A) (A) (A) (A) (A) (A) (A) (A)
                 (A) (A) (A) (A) (A) (A) (A) (A) (A) (A) (A) (A)
                 (A) (A) (A) (A) (A) (A) (A) (A) (A) (A) (A) (A)
                 (A) (A) (A) (A) (A) (A) (A) (A) (A) (A) (A) (A)
                 (A) (A) (A) (A) (A) (A) (A) (A) (A) (A) (A) (A)
                 (A) (A) (A) (A) (A) (A) (A) (A) (A) (A) (A) (A)
                 (A) (A) (A) (A) (A) (A) (A) (A) (A) (A) (A) (A)
                 (A) (A) (A) (A) (A) (A) (A) (A) (A) (A) (A) (A)
                 (A) (A) (A) (A) (A) (A) (A) (A) (A) (A) (A) (A)
                 (A) (A) (A) (A) (A) (A) (A) (A) (A) (A) (A) (A)
                 (A) (A) (A) (A) (A) (A) (A) (A) (A) (A) (A) (A)
                 (A) (A) (A) (A) (A) (A) (A) (A) (A) (A) (A) (A)
                 (A) (A) (A) (A) (A) (A) (A) (A) (A) (A) (A) (A)
                 (A) (A) (A) (A) (A) (A) (A) (A) (A) (A) (A) (A)
                 (A) (A) (A) (A) (A) (A) (A) (A) (A) (A) (A) (A)
                 (A) (A) (A) (A) (A) (A) (A) (A) (A) (A) (A) (A)
                 (A) (A) (A) (A) (A) (A) (A) (A) (A) (A) (A) (A)
                 (A) (A) (A) (A) (A) (A) (A) (A) (A) (A) (A) (A)
                 (A) (A) (A) (A) (A) (A) (A) (A) (A) (A) (A) (A)
                 (A) (A) (A) (A) (A) (A) (A) (A) (A) (A) (A) (A)
                 (A) (A) (A) (A) (A) (A) (A) (A) (A) (A) (A) (A)
                 (A) (A) (A) (A) (A) (A) (A) (A) (A) (A) (A) (A)
                 (A) (A) (A) (A) (A) (A) (A) (A) (A) (A) (A) (A)
                 (A) (A) (A) (A) (A) (A) (A) (A) (A) (A) (A) (A)
                 (A) (A) (A) (A) (A) (A) (A) (A) (A) (A) (A) (A)
                 (A) (A) (A) (A) (A) (A) (A) (A) (A) (A) (A) (A)
                 (A) (A) (A) (A) (A) (A) (A) (A) (A) (A) (A) (A)
                 (A) (A) (A) (A) (A) (A) (A) (A) (A) (A) (A) (A)
                 (A) (A) (A) (A) (A) (A) (A) (A) (A) (A) (A) (A)
                 (A) (A) (A) (A)
 Beta  Orbitals:
       Occupied  (A) (A) (A) (A) (A) (A) (A) (A) (A) (A) (A) (A)
                 (A) (A) (A) (A) (A) (A) (A) (A) (A) (A) (A) (A)
                 (A) (A) (A) (A) (A) (A) (A) (A) (A) (A) (A) (A)
                 (A) (A) (A) (A) (A) (A) (A) (A) (A) (A) (A) (A)
                 (A) (A)
       Virtual   (A) (A) (A) (A) (A) (A) (A) (A) (A) (A) (A) (A)
                 (A) (A) (A) (A) (A) (A) (A) (A) (A) (A) (A) (A)
                 (A) (A) (A) (A) (A) (A) (A) (A) (A) (A) (A) (A)
                 (A) (A) (A) (A) (A) (A) (A) (A) (A) (A) (A) (A)
                 (A) (A) (A) (A) (A) (A) (A) (A) (A) (A) (A) (A)
                 (A) (A) (A) (A) (A) (A) (A) (A) (A) (A) (A) (A)
                 (A) (A) (A) (A) (A) (A) (A) (A) (A) (A) (A) (A)
                 (A) (A) (A) (A) (A) (A) (A) (A) (A) (A) (A) (A)
                 (A) (A) (A) (A) (A) (A) (A) (A) (A) (A) (A) (A)
                 (A) (A) (A) (A) (A) (A) (A) (A) (A) (A) (A) (A)
                 (A) (A) (A) (A) (A) (A) (A) (A) (A) (A) (A) (A)
                 (A) (A) (A) (A) (A) (A) (A) (A) (A) (A) (A) (A)
                 (A) (A) (A) (A) (A) (A) (A) (A) (A) (A) (A) (A)
                 (A) (A) (A) (A) (A) (A) (A) (A) (A) (A) (A) (A)
                 (A) (A) (A) (A) (A) (A) (A) (A) (A) (A) (A) (A)
                 (A) (A) (A) (A) (A) (A) (A) (A) (A) (A) (A) (A)
                 (A) (A) (A) (A) (A) (A) (A) (A) (A) (A) (A) (A)
                 (A) (A) (A) (A) (A) (A) (A) (A) (A) (A) (A) (A)
                 (A) (A) (A) (A) (A) (A) (A) (A) (A) (A) (A) (A)
                 (A) (A) (A) (A) (A) (A) (A) (A) (A) (A) (A) (A)
                 (A) (A) (A) (A) (A) (A) (A) (A) (A) (A) (A) (A)
                 (A) (A) (A) (A) (A) (A) (A) (A) (A) (A) (A) (A)
                 (A) (A) (A) (A) (A) (A) (A) (A) (A) (A) (A) (A)
                 (A) (A) (A) (A) (A) (A) (A) (A) (A) (A) (A) (A)
                 (A) (A) (A) (A) (A) (A) (A) (A) (A) (A) (A) (A)
                 (A) (A) (A) (A) (A) (A) (A) (A) (A) (A) (A) (A)
                 (A) (A) (A) (A) (A) (A) (A) (A) (A) (A) (A) (A)
                 (A) (A) (A) (A) (A) (A) (A) (A) (A) (A) (A) (A)
                 (A) (A) (A) (A) (A) (A) (A) (A) (A) (A) (A) (A)
                 (A) (A) (A) (A) (A) (A) (A) (A) (A) (A) (A) (A)
                 (A) (A) (A) (A) (A) (A) (A) (A) (A) (A) (A) (A)
                 (A) (A) (A) (A) (A) (A) (A) (A) (A) (A) (A) (A)
                 (A) (A) (A) (A) (A) (A) (A) (A) (A) (A) (A) (A)
                 (A) (A) (A) (A) (A) (A) (A) (A) (A) (A) (A) (A)
                 (A) (A) (A) (A) (A) (A) (A) (A) (A) (A) (A) (A)
                 (A) (A) (A) (A) (A) (A) (A) (A) (A) (A) (A) (A)
                 (A) (A) (A) (A) (A) (A) (A) (A) (A) (A) (A) (A)
                 (A) (A) (A) (A) (A) (A) (A) (A) (A) (A) (A) (A)
                 (A) (A) (A) (A) (A)
 The electronic state is 2-A.
 Alpha  occ. eigenvalues --  -19.64155 -19.63638 -14.83867 -10.63679 -10.59866
 Alpha  occ. eigenvalues --  -10.59698 -10.53839 -10.53750 -10.53661 -10.53536
 Alpha  occ. eigenvalues --  -10.52964 -10.52832 -10.52647  -1.21148  -1.15634
 Alpha  occ. eigenvalues --   -0.95483  -0.93836  -0.87462  -0.84186  -0.81141
 Alpha  occ. eigenvalues --   -0.79260  -0.77064  -0.70414  -0.68389  -0.66129
 Alpha  occ. eigenvalues --   -0.62449  -0.57793  -0.57315  -0.55178  -0.54564
 Alpha  occ. eigenvalues --   -0.52587  -0.51956  -0.50720  -0.49595  -0.48155
 Alpha  occ. eigenvalues --   -0.46875  -0.46249  -0.45896  -0.45326  -0.44562
 Alpha  occ. eigenvalues --   -0.44414  -0.44080  -0.41419  -0.40735  -0.40049
 Alpha  occ. eigenvalues --   -0.38770  -0.37538  -0.37246  -0.34193  -0.33000
 Alpha  occ. eigenvalues --   -0.26878
 Alpha virt. eigenvalues --    0.05474   0.07376   0.08470   0.09202   0.09596
 Alpha virt. eigenvalues --    0.10991   0.11237   0.12431   0.12542   0.13466
 Alpha virt. eigenvalues --    0.13875   0.14205   0.14547   0.15149   0.15554
 Alpha virt. eigenvalues --    0.16263   0.16591   0.17568   0.18163   0.18605
 Alpha virt. eigenvalues --    0.19001   0.19484   0.20469   0.20914   0.22020
 Alpha virt. eigenvalues --    0.22390   0.23904   0.24020   0.25226   0.25625
 Alpha virt. eigenvalues --    0.25989   0.27244   0.27809   0.27976   0.28932
 Alpha virt. eigenvalues --    0.29130   0.30226   0.31022   0.32496   0.32831
 Alpha virt. eigenvalues --    0.33930   0.34461   0.35585   0.37216   0.37880
 Alpha virt. eigenvalues --    0.38912   0.39321   0.40437   0.40831   0.41315
 Alpha virt. eigenvalues --    0.41711   0.42708   0.43123   0.43955   0.44399
 Alpha virt. eigenvalues --    0.45177   0.45474   0.46073   0.46225   0.46680
 Alpha virt. eigenvalues --    0.46864   0.47781   0.48038   0.48917   0.49172
 Alpha virt. eigenvalues --    0.49539   0.49840   0.50420   0.51051   0.51432
 Alpha virt. eigenvalues --    0.51800   0.52513   0.53013   0.53941   0.54118
 Alpha virt. eigenvalues --    0.55119   0.55919   0.57329   0.58051   0.59304
 Alpha virt. eigenvalues --    0.60196   0.61781   0.62597   0.63220   0.64597
 Alpha virt. eigenvalues --    0.66508   0.68783   0.69128   0.69362   0.70475
 Alpha virt. eigenvalues --    0.71286   0.72044   0.74076   0.76241   0.77823
 Alpha virt. eigenvalues --    0.79097   0.80882   0.82089   0.82916   0.83720
 Alpha virt. eigenvalues --    0.85154   0.87222   0.87923   0.88399   0.89426
 Alpha virt. eigenvalues --    0.90425   0.91395   0.92447   0.93604   0.94960
 Alpha virt. eigenvalues --    0.95254   0.96476   0.96602   0.98539   1.00229
 Alpha virt. eigenvalues --    1.01510   1.01587   1.02384   1.03541   1.05132
 Alpha virt. eigenvalues --    1.07089   1.07990   1.08684   1.09685   1.11061
 Alpha virt. eigenvalues --    1.13230   1.13822   1.15980   1.16848   1.17621
 Alpha virt. eigenvalues --    1.18242   1.19019   1.20746   1.21716   1.22601
 Alpha virt. eigenvalues --    1.24996   1.26297   1.27342   1.28459   1.29809
 Alpha virt. eigenvalues --    1.30071   1.30946   1.31440   1.33245   1.34803
 Alpha virt. eigenvalues --    1.35247   1.37706   1.38249   1.40366   1.40867
 Alpha virt. eigenvalues --    1.44947   1.46923   1.48350   1.50919   1.52691
 Alpha virt. eigenvalues --    1.54805   1.55399   1.57433   1.57929   1.58828
 Alpha virt. eigenvalues --    1.60133   1.60619   1.61220   1.61970   1.63226
 Alpha virt. eigenvalues --    1.63701   1.64535   1.65278   1.65808   1.66349
 Alpha virt. eigenvalues --    1.67425   1.67965   1.69560   1.70389   1.71400
 Alpha virt. eigenvalues --    1.72691   1.74154   1.74550   1.75430   1.75969
 Alpha virt. eigenvalues --    1.77944   1.80322   1.81338   1.83975   1.85659
 Alpha virt. eigenvalues --    1.85874   1.86041   1.88801   1.89237   1.90365
 Alpha virt. eigenvalues --    1.92496   1.92727   1.94293   1.96159   1.97186
 Alpha virt. eigenvalues --    1.98822   2.00619   2.01691   2.02563   2.04613
 Alpha virt. eigenvalues --    2.05382   2.05603   2.06967   2.08585   2.09877
 Alpha virt. eigenvalues --    2.10708   2.12929   2.13890   2.15379   2.17379
 Alpha virt. eigenvalues --    2.17810   2.18159   2.20128   2.20741   2.22229
 Alpha virt. eigenvalues --    2.23723   2.24779   2.25522   2.26547   2.27792
 Alpha virt. eigenvalues --    2.29397   2.31116   2.31662   2.34060   2.34490
 Alpha virt. eigenvalues --    2.36354   2.36808   2.37876   2.38904   2.39448
 Alpha virt. eigenvalues --    2.41469   2.42071   2.42614   2.43569   2.44189
 Alpha virt. eigenvalues --    2.45164   2.48789   2.49626   2.50345   2.51418
 Alpha virt. eigenvalues --    2.52553   2.54374   2.54829   2.55591   2.55734
 Alpha virt. eigenvalues --    2.57247   2.58765   2.59660   2.59906   2.60351
 Alpha virt. eigenvalues --    2.61482   2.62586   2.62984   2.63416   2.64273
 Alpha virt. eigenvalues --    2.65234   2.65449   2.66589   2.67252   2.68512
 Alpha virt. eigenvalues --    2.68700   2.70529   2.70874   2.71631   2.71856
 Alpha virt. eigenvalues --    2.72614   2.74687   2.76626   2.77361   2.79109
 Alpha virt. eigenvalues --    2.80044   2.81011   2.82025   2.83341   2.84695
 Alpha virt. eigenvalues --    2.86575   2.87268   2.88098   2.89320   2.89539
 Alpha virt. eigenvalues --    2.90329   2.92856   2.94155   2.95459   2.97248
 Alpha virt. eigenvalues --    2.98474   3.01183   3.02664   3.03312   3.04472
 Alpha virt. eigenvalues --    3.08202   3.08873   3.11231   3.13050   3.14392
 Alpha virt. eigenvalues --    3.15395   3.16522   3.16655   3.17367   3.19269
 Alpha virt. eigenvalues --    3.19963   3.21760   3.22495   3.23054   3.24791
 Alpha virt. eigenvalues --    3.25152   3.26576   3.27641   3.28411   3.30414
 Alpha virt. eigenvalues --    3.31109   3.31370   3.32429   3.33070   3.34220
 Alpha virt. eigenvalues --    3.35047   3.35793   3.36694   3.37476   3.38278
 Alpha virt. eigenvalues --    3.39377   3.40625   3.40947   3.42301   3.43548
 Alpha virt. eigenvalues --    3.44577   3.44970   3.45934   3.46533   3.47128
 Alpha virt. eigenvalues --    3.48246   3.49314   3.51698   3.53134   3.54783
 Alpha virt. eigenvalues --    3.56643   3.57285   3.58605   3.58720   3.60762
 Alpha virt. eigenvalues --    3.61142   3.63065   3.64239   3.64873   3.65911
 Alpha virt. eigenvalues --    3.67581   3.68041   3.71182   3.71945   3.74498
 Alpha virt. eigenvalues --    3.75105   3.78877   3.82610   3.85136   3.87313
 Alpha virt. eigenvalues --    3.89752   3.92116   3.93051   3.94317   3.95832
 Alpha virt. eigenvalues --    3.96364   3.98167   3.99130   3.99479   4.00488
 Alpha virt. eigenvalues --    4.01941   4.04622   4.06085   4.07229   4.07571
 Alpha virt. eigenvalues --    4.10347   4.11764   4.13525   4.13764   4.16155
 Alpha virt. eigenvalues --    4.19085   4.21086   4.21510   4.23536   4.25630
 Alpha virt. eigenvalues --    4.27073   4.28986   4.30936   4.32412   4.34274
 Alpha virt. eigenvalues --    4.36541   4.37580   4.39624   4.40709   4.41458
 Alpha virt. eigenvalues --    4.42660   4.45059   4.45963   4.49440   4.51544
 Alpha virt. eigenvalues --    4.55803   4.57152   4.58473   4.65965   4.66052
 Alpha virt. eigenvalues --    4.69458   4.71058   4.73576   4.74277   4.78081
 Alpha virt. eigenvalues --    4.79449   4.85058   4.86109   4.88601   4.91893
 Alpha virt. eigenvalues --    4.94141   4.94868   4.98389   5.00026   5.02905
 Alpha virt. eigenvalues --    5.06129   5.13706   5.19917   5.21994   5.24900
 Alpha virt. eigenvalues --    5.28224   5.35700   5.45014   5.45911   5.50324
 Alpha virt. eigenvalues --    5.52816   5.55473   5.71874   5.76170   5.80206
 Alpha virt. eigenvalues --    5.82711   5.90653   6.06142   6.09796   6.16562
 Alpha virt. eigenvalues --    6.37405   6.39279   6.43821   6.73222   6.81295
 Alpha virt. eigenvalues --    6.85064   6.92258   6.97302   6.97903   7.25069
 Alpha virt. eigenvalues --    7.29105   7.64965  22.47329  22.49227  22.53286
 Alpha virt. eigenvalues --   22.55859  22.57329  22.63235  22.65836  22.72117
 Alpha virt. eigenvalues --   22.80664  22.85808  32.91454  44.21219  44.48780
  Beta  occ. eigenvalues --  -19.64154 -19.62539 -14.83042 -10.63721 -10.59867
  Beta  occ. eigenvalues --  -10.59737 -10.53806 -10.53730 -10.53638 -10.53499
  Beta  occ. eigenvalues --  -10.52964 -10.52832 -10.52647  -1.18896  -1.14593
  Beta  occ. eigenvalues --   -0.94166  -0.93505  -0.86568  -0.84091  -0.80396
  Beta  occ. eigenvalues --   -0.79076  -0.76886  -0.70270  -0.67936  -0.65754
  Beta  occ. eigenvalues --   -0.61599  -0.57090  -0.56660  -0.54564  -0.52987
  Beta  occ. eigenvalues --   -0.52397  -0.51340  -0.50552  -0.48478  -0.47671
  Beta  occ. eigenvalues --   -0.46651  -0.45826  -0.45487  -0.44616  -0.44037
  Beta  occ. eigenvalues --   -0.43876  -0.42825  -0.40643  -0.39969  -0.38760
  Beta  occ. eigenvalues --   -0.37861  -0.37234  -0.36920  -0.33656  -0.31676
  Beta virt. eigenvalues --   -0.01503   0.05521   0.07391   0.08548   0.09273
  Beta virt. eigenvalues --    0.09672   0.10998   0.11245   0.12519   0.12584
  Beta virt. eigenvalues --    0.13442   0.13895   0.14256   0.14566   0.15219
  Beta virt. eigenvalues --    0.15721   0.16316   0.16605   0.17671   0.18187
  Beta virt. eigenvalues --    0.18702   0.18998   0.19553   0.20492   0.20955
  Beta virt. eigenvalues --    0.22183   0.22449   0.24072   0.24577   0.25373
  Beta virt. eigenvalues --    0.25690   0.25990   0.27333   0.27886   0.28020
  Beta virt. eigenvalues --    0.28952   0.29160   0.30459   0.31281   0.32644
  Beta virt. eigenvalues --    0.32987   0.34079   0.34600   0.36015   0.37426
  Beta virt. eigenvalues --    0.38237   0.38989   0.39491   0.40488   0.41071
  Beta virt. eigenvalues --    0.41408   0.41878   0.42769   0.43198   0.43964
  Beta virt. eigenvalues --    0.44404   0.45226   0.45468   0.46075   0.46285
  Beta virt. eigenvalues --    0.46739   0.46903   0.47813   0.48035   0.49018
  Beta virt. eigenvalues --    0.49213   0.49542   0.49874   0.50394   0.51127
  Beta virt. eigenvalues --    0.51486   0.51857   0.52556   0.53219   0.54006
  Beta virt. eigenvalues --    0.54156   0.55232   0.55973   0.57421   0.58220
  Beta virt. eigenvalues --    0.59410   0.60294   0.62032   0.62692   0.63357
  Beta virt. eigenvalues --    0.64888   0.66816   0.68827   0.69271   0.69534
  Beta virt. eigenvalues --    0.70517   0.71610   0.72284   0.74140   0.76369
  Beta virt. eigenvalues --    0.77993   0.79223   0.80943   0.82145   0.83037
  Beta virt. eigenvalues --    0.83872   0.85211   0.87314   0.87959   0.88443
  Beta virt. eigenvalues --    0.89508   0.90537   0.91477   0.92536   0.93694
  Beta virt. eigenvalues --    0.95053   0.95384   0.96619   0.96745   0.98584
  Beta virt. eigenvalues --    1.00423   1.01691   1.01732   1.02477   1.03665
  Beta virt. eigenvalues --    1.05215   1.07223   1.08047   1.08937   1.09914
  Beta virt. eigenvalues --    1.11289   1.13281   1.14002   1.16079   1.17056
  Beta virt. eigenvalues --    1.17707   1.18316   1.19080   1.20870   1.21840
  Beta virt. eigenvalues --    1.22689   1.25049   1.26340   1.27462   1.28552
  Beta virt. eigenvalues --    1.29903   1.30266   1.31050   1.31448   1.33359
  Beta virt. eigenvalues --    1.35019   1.35341   1.37792   1.38351   1.40402
  Beta virt. eigenvalues --    1.40874   1.45271   1.47182   1.48577   1.51269
  Beta virt. eigenvalues --    1.52899   1.55118   1.55583   1.57480   1.58047
  Beta virt. eigenvalues --    1.58926   1.60260   1.60717   1.61356   1.62067
  Beta virt. eigenvalues --    1.63302   1.63814   1.64614   1.65333   1.65924
  Beta virt. eigenvalues --    1.66423   1.67477   1.68066   1.69603   1.70433
  Beta virt. eigenvalues --    1.71541   1.72742   1.74174   1.74671   1.75554
  Beta virt. eigenvalues --    1.76326   1.78135   1.80742   1.81417   1.84184
  Beta virt. eigenvalues --    1.85808   1.85961   1.86163   1.88973   1.89397
  Beta virt. eigenvalues --    1.90387   1.92689   1.93021   1.94424   1.96227
  Beta virt. eigenvalues --    1.97329   1.98952   2.00637   2.01790   2.02594
  Beta virt. eigenvalues --    2.04940   2.05455   2.05887   2.07132   2.08665
  Beta virt. eigenvalues --    2.10022   2.10764   2.13024   2.13967   2.15478
  Beta virt. eigenvalues --    2.17611   2.17971   2.18388   2.20300   2.20826
  Beta virt. eigenvalues --    2.22363   2.23881   2.24895   2.25623   2.26629
  Beta virt. eigenvalues --    2.27916   2.29722   2.31374   2.31873   2.34128
  Beta virt. eigenvalues --    2.34932   2.36509   2.36932   2.37981   2.38982
  Beta virt. eigenvalues --    2.39517   2.41555   2.42117   2.42716   2.43651
  Beta virt. eigenvalues --    2.44224   2.45333   2.48923   2.49679   2.50491
  Beta virt. eigenvalues --    2.51535   2.52569   2.54433   2.54982   2.55728
  Beta virt. eigenvalues --    2.55802   2.57413   2.58841   2.59705   2.59956
  Beta virt. eigenvalues --    2.60415   2.61689   2.62670   2.63201   2.63491
  Beta virt. eigenvalues --    2.64278   2.65339   2.65539   2.66657   2.67678
  Beta virt. eigenvalues --    2.68633   2.68834   2.70592   2.70951   2.71753
  Beta virt. eigenvalues --    2.72144   2.72762   2.74802   2.76799   2.77423
  Beta virt. eigenvalues --    2.80113   2.80206   2.81084   2.82282   2.83554
  Beta virt. eigenvalues --    2.84749   2.86626   2.88035   2.89117   2.89367
  Beta virt. eigenvalues --    2.89928   2.90707   2.92911   2.94555   2.96108
  Beta virt. eigenvalues --    2.97309   2.98599   3.01234   3.02834   3.03417
  Beta virt. eigenvalues --    3.04623   3.08328   3.08939   3.11392   3.13153
  Beta virt. eigenvalues --    3.14446   3.15531   3.16561   3.16690   3.17581
  Beta virt. eigenvalues --    3.19402   3.20060   3.21900   3.22662   3.23190
  Beta virt. eigenvalues --    3.24941   3.25194   3.26859   3.27750   3.28495
  Beta virt. eigenvalues --    3.30478   3.31166   3.31597   3.32479   3.33248
  Beta virt. eigenvalues --    3.34277   3.35112   3.35899   3.36774   3.37511
  Beta virt. eigenvalues --    3.38368   3.39481   3.40642   3.41031   3.42385
  Beta virt. eigenvalues --    3.43607   3.44632   3.45049   3.46025   3.46563
  Beta virt. eigenvalues --    3.47145   3.48292   3.49349   3.51737   3.53164
  Beta virt. eigenvalues --    3.54793   3.56682   3.57308   3.58633   3.58800
  Beta virt. eigenvalues --    3.60757   3.61218   3.63116   3.64287   3.64951
  Beta virt. eigenvalues --    3.65967   3.67741   3.68097   3.71236   3.71995
  Beta virt. eigenvalues --    3.74607   3.75201   3.79033   3.82717   3.85203
  Beta virt. eigenvalues --    3.87380   3.89769   3.92240   3.93125   3.94462
  Beta virt. eigenvalues --    3.96005   3.96443   3.98192   3.99210   3.99570
  Beta virt. eigenvalues --    4.00589   4.02074   4.04738   4.06098   4.07292
  Beta virt. eigenvalues --    4.07630   4.10414   4.11775   4.13585   4.13853
  Beta virt. eigenvalues --    4.16249   4.19421   4.21151   4.21529   4.23609
  Beta virt. eigenvalues --    4.25715   4.27282   4.29172   4.30969   4.32458
  Beta virt. eigenvalues --    4.34309   4.36583   4.37771   4.39768   4.40742
  Beta virt. eigenvalues --    4.41607   4.42778   4.45217   4.46109   4.49763
  Beta virt. eigenvalues --    4.51688   4.56089   4.57507   4.58509   4.65990
[...]
 -0.00001543,-0.00002899,0.00002870,0.00000277,0.00001538,0.00001234,-0
 .00002030,-0.00001844,-0.00003125,0.00000920,-0.00003716,-0.00003819,0
 .00000224,0.00004121,0.00000798,-0.00000169,-0.00000415,0.00002863,-0.
 00000565,-0.00001725,-0.00251213,0.00579048,-0.00201443,-0.02269984,0.
 04819257,-0.06179579,-0.01245781,0.02379922,-0.00742605,-0.00017765,0.
 00129113,0.00136346,0.00019662,-0.00014380,-0.00023095,0.00023213,-0.0
 0041494,0.00025238,0.00076040,0.00099923,0.00057732,0.01064308,-0.0230
 7284,0.00628022,0.02889628,-0.05515456,0.06603207,-0.00023032,-0.00020
 527,-0.00000397,0.00028668,0.00019737,-0.00003029,-0.00032544,0.000092
 85,0.00001781,0.00000303,-0.00011456,0.00003323,-0.00009201,0.00002055
 ,-0.00000310,0.00004742,-0.00003112,0.00003047,-0.00000263,-0.00002028
 ,-0.00000363,-0.00002343,-0.00001017,-0.00001526,0.00000100,-0.0000100
 9,-0.00000319,0.00000509,-0.00000095,-0.00000623,0.00001344,-0.0000075
 2,0.00000164,0.00000640,0.00001181,0.00000244,-0.00000745,-0.00000110,
 0.00000341,-0.00000636,-0.00000005,0.00000878,0.00000006,0.00000226,0.
 00000772,0.00000988,-0.00000704,-0.00000451,0.00064708,0.00162429,0.00
 029396,-0.01056474,0.01749541,-0.00508593,-0.10169699,0.09793302,-0.02
 131550,-0.00853188,0.01568745,-0.00273602,0.00043548,0.00088127,-0.000
 95975,0.00037518,-0.00028241,0.00006090,-0.00027505,-0.00075188,0.0000
 2007,0.00075667,-0.00041660,0.00029238,-0.00169680,-0.00083628,-0.0034
 0025,0.10978385,0.00025606,0.00003043,0.00008365,-0.00011005,-0.000006
 86,0.00005703,-0.00008695,-0.00011749,-0.00009088,0.00020043,0.0001189
 6,0.00004109,-0.00001319,0.00001376,-0.00004200,-0.00006375,-0.0000055
 5,-0.00001881,0.00001318,0.00001000,-0.00001514,0.00002396,0.00001087,
 0.00001331,0.00001888,0.00000744,0.00000096,0.00000409,-0.00000411,0.0
 0001367,-0.00001134,-0.00000014,-0.00000139,-0.00000601,-0.00000078,-0
 .00000043,0.00001372,0.00000074,0.00000454,0.00001634,-0.00000011,-0.0
 0000679,-0.00000911,-0.00000301,0.00000426,-0.00001323,0.00000106,0.00
 000300,-0.00039615,0.00110692,-0.00051322,-0.00225941,0.00257349,-0.00
 027757,0.09902197,-0.23997449,0.04335235,0.00442117,-0.01012457,0.0008
 9466,-0.00053928,0.00083035,0.00028703,0.00003934,0.00023023,0.0000027
 2,0.00051765,0.00027835,-0.00011837,0.00024782,0.00035994,0.00067167,-
 0.00108490,0.00125242,-0.00056254,-0.11113660,0.26035604,0.00007176,-0
 .00001291,0.00047466,0.00004863,0.00000577,-0.00002627,0.00002551,-0.0
 0004683,-0.00035387,-0.00004314,0.00000582,0.00016524,0.00002328,0.000
 01633,0.00002811,0.00001771,0.00001988,-0.00008780,-0.00000720,-0.0000
 0808,-0.00001535,0.00000294,-0.00000492,0.00000413,-0.00000453,-0.0000
 0120,0.00000288,0.00000911,0.00000722,-0.00000349,0.00000568,-0.000002
 24,-0.00000625,0.00000903,0.00001453,0.00001133,-0.00000684,-0.0000009
 1,0.00000715,-0.00000060,0.00000230,0.00000101,0.00000016,-0.00000547,
 0.00000290,-0.00000643,0.00000219,-0.00000539,0.00128428,0.00090338,0.
 00084707,-0.01420122,0.02475009,-0.00755986,-0.02160342,0.04312810,-0.
 05571301,0.01369850,-0.02607337,0.00406977,-0.00099351,-0.00060446,0.0
 0120754,0.00041167,-0.00016750,-0.00003436,-0.00011570,-0.00074992,0.0
 0037372,0.00083425,0.00020236,0.00067914,-0.00358102,-0.00154168,-0.00
 398508,0.02512998,-0.04501315,0.06525574,0.00001457,0.00017358,-0.0000
 4294,-0.00005479,-0.00015826,0.00005718,0.00096860,0.00021725,-0.00020
 694,-0.00026000,-0.00008943,0.00000611,0.00016060,-0.00008200,0.000006
 51,0.00007248,0.00005485,-0.00001190,-0.00000753,0.00000269,0.00000245
 ,-0.00000472,-0.00000432,0.00001403,-0.00002610,0.00000815,0.00001730,
 -0.00000995,0.00002509,0.00000969,-0.00000532,0.00001165,0.00000305,0.
 00000866,-0.00001161,0.00000810,-0.00001150,0.00000001,-0.00000463,-0.
 00001752,0.00000040,-0.00000594,0.00002047,0.00000388,-0.00002338,0.00
 000042,0.00000835,0.00000278,-0.00141339,0.00068925,-0.00390008,-0.013
 81969,-0.01315034,0.00413451,-0.17886423,-0.12617794,0.03749032,-0.012
 39429,-0.01133111,0.00350054,-0.00059358,0.00227020,0.00282091,-0.0007
 8853,-0.00085885,0.00036035,0.00011274,-0.00011979,0.00003971,0.000818
 30,0.00009099,-0.00002340,0.00018816,0.00035944,0.00052715,0.01125883,
 0.00998520,-0.00304995,0.19450980,-0.00004241,0.00001027,-0.00000707,-
 0.00004727,0.00002528,0.00007794,0.00021029,-0.00011849,-0.00037630,-0
 .00008667,0.00001943,0.00011551,0.00006697,-0.00000054,0.00000963,0.00
 005551,0.00000378,-0.00002613,-0.00000835,-0.00000157,-0.00000110,-0.0
 0000956,0.00000486,-0.00000904,-0.00001050,-0.00000104,0.00001391,0.00
 001631,0.00001006,0.00001346,0.00000353,0.00000471,0.00000125,0.000008
 30,-0.00000189,0.00001147,-0.00001095,-0.00000071,0.00000010,-0.000009
 26,-0.00000218,0.00000679,-0.00000255,-0.00000305,-0.00000157,0.000004
 53,0.00000295,0.00000100,-0.00034181,0.00071485,-0.00128844,-0.0008494
 6,-0.00238922,0.00074715,-0.12791585,-0.17247050,0.03782004,0.00892056
 ,0.00731954,-0.00249541,0.00115782,-0.00000010,-0.00148293,-0.00051971
 ,0.00004729,0.00017661,0.00024208,0.00054301,-0.00007166,-0.00004102,-
 0.00020047,-0.00028777,0.00001406,0.00053308,-0.00036615,-0.01952261,-
 0.01887967,0.00545382,0.13884120,0.18319625,0.00003440,0.00003704,0.00
 001560,-0.00002150,0.00001744,0.00020625,-0.00010507,-0.00036585,-0.00
 133917,0.00001623,0.00010536,0.00054335,-0.00004206,-0.00002581,-0.000
 08592,0.00000483,-0.00003932,-0.00005617,0.00001022,0.00000316,-0.0000
 1676,0.00001089,0.00004548,-0.00003721,0.00000767,0.00000935,0.0000284
 3,0.00007027,0.00002821,0.00007046,-0.00000535,0.00000352,0.00000284,0
 .00000787,-0.00000666,0.00002241,0.00000185,-0.00000062,0.00000729,0.0
 0001598,-0.00000583,0.00001939,-0.00003037,-0.00002221,0.00002822,-0.0
 0000871,0.00000558,0.00000487,-0.00328143,0.00029098,-0.00470268,-0.01
 956184,-0.01983672,0.00577857,0.03805312,0.03783068,-0.05722074,0.0193
 6213,0.01952994,-0.00591707,0.00235417,-0.00328586,-0.00432393,-0.0014
 7749,-0.00103924,0.00034453,0.00023000,0.00008621,-0.00009196,0.000928
 84,-0.00016541,0.00095079,0.00065872,0.00049307,0.00099487,0.00429017,
 0.00405375,-0.00195786,-0.04137738,-0.03880254,0.06513734,-0.00084970,
 0.00035578,-0.00046635,0.00043937,0.00012567,0.00011184,-0.00086654,-0
 .00215925,0.00410819,-0.00184683,-0.00067985,-0.00126429,0.00018484,-0
 .00040545,0.00015784,0.00015197,-0.00002216,0.00009267,-0.00002677,0.0
 0001695,0.00005849,-0.00006764,-0.00000632,-0.00004042,-0.00011077,-0.
 00000324,-0.00005709,-0.00011497,0.00002306,-0.00009276,0.00001345,0.0
 0001506,-0.00000541,0.00000806,-0.00000941,0.00000473,-0.00002395,-0.0
 0000392,-0.00001710,-0.00003008,0.00000857,0.00003096,0.00001285,-0.00
 003149,-0.00002480,0.00000496,0.00001785,-0.00001275,-0.00012532,0.000
 03103,0.00028585,-0.00206705,0.00110061,0.00283754,0.01225658,0.001121
 02,0.01619878,-0.14246586,-0.00703711,-0.12801917,-0.01611391,-0.00209
 526,-0.02050749,0.00009423,0.00006100,-0.00011287,0.00006411,0.0000013
 3,-0.00006258,0.00065343,0.00023809,0.00097012,-0.00009205,-0.00006771
 ,0.00007819,0.00075571,-0.00024304,-0.00079611,0.00063768,-0.00043396,
 -0.00079995,0.15542190,0.00136657,0.00036094,0.00058997,-0.00028361,-0
 .00076543,-0.00011865,-0.00190782,-0.00201315,0.00295653,-0.00156250,-
 0.00050183,-0.00086223,0.00012642,-0.00039088,0.00006815,-0.00002723,0
 .00004855,-0.00014650,-0.00001198,0.00004177,-0.00000306,0.00005324,0.
 00003869,0.00001793,-0.00010390,0.00002572,-0.00005171,-0.00007896,0.0
 0001832,-0.00005620,-0.00002130,0.00001452,-0.00001404,-0.00000402,-0.
 00000633,0.00000363,0.00000611,0.00000269,-0.00000061,0.00001040,-0.00
 000531,-0.00001961,0.00000527,-0.00000260,-0.00001288,-0.00001771,0.00
 000897,0.00002032,0.00015488,0.00023404,0.00032821,0.00148575,-0.00001
 163,-0.00129383,-0.00588211,-0.00175729,-0.00864350,-0.00570266,-0.048
 67706,-0.00847302,-0.01493293,-0.00320174,-0.01878609,0.00004697,0.000
 00447,-0.00003903,-0.00000212,-0.00001871,-0.00000145,-0.00033335,0.00
 024784,-0.00049670,-0.00015594,0.00010930,-0.00030378,-0.00057488,0.00
 017135,0.00019642,0.00011598,0.00017768,0.00054091,0.01031508,0.051008
 63,-0.00029347,-0.00012693,0.00003636,0.00003265,0.00021275,-0.0000029
 4,0.00149910,0.00104625,0.00010160,0.00025844,0.00018607,0.00040799,0.
 00007637,0.00009496,-0.00002471,0.00005959,0.00000210,-0.00004293,-0.0
 0000817,-0.00001561,-0.00000518,-0.00001726,-0.00001167,-0.00000707,0.
 00002142,-0.00001033,0.00002405,0.00001919,0.00000858,0.00002090,0.000
 00936,-0.00000081,0.00000149,0.00000894,0.00000528,0.00001307,-0.00001
 376,-0.00000106,0.00000128,-0.00001265,0.00000092,0.00000712,0.0000067
 5,-0.00000361,0.00000074,0.00000534,0.00000244,-0.00000811,0.00045491,
 0.00040393,0.00025173,0.00507942,-0.00176605,-0.00336863,-0.01647824,-
 0.00070611,-0.02093317,-0.12761008,-0.01033535,-0.21631629,0.00520695,
 0.00084957,0.00675808,-0.00011480,0.00000020,0.00007719,-0.00005683,-0
 .00007410,0.00002098,-0.00116296,-0.00044933,-0.00140977,0.00020830,0.
 00007253,0.00036138,-0.00011011,-0.00033814,0.00115257,0.00002945,0.00
 065905,0.00049996,0.13627733,0.01120396,0.23587278,-0.00232546,0.00139
 219,-0.00098852,-0.00048600,-0.00120196,0.00002061,0.00144095,-0.00030
 547,0.00015158,-0.00041540,0.00042812,-0.00012366,0.00026748,-0.000131
 69,0.00001575,-0.00030143,0.00009641,-0.00000619,0.00004784,0.00008885
 ,-0.00005419,0.00010518,0.00003736,0.00006374,-0.00003044,0.00004019,-
 0.00001639,-0.00002914,0.00001144,-0.00001999,-0.00003817,0.00000675,-
 0.00001930,-0.00001528,-0.00000188,-0.00000337,0.00004208,-0.00001037,
 0.00002312,0.00004236,0.00000533,-0.00003999,-0.00000107,-0.00001491,-
 0.00000395,-0.00004636,0.00001670,0.00001167,-0.00011853,0.00000858,-0
 .00008193,0.00049240,-0.00074598,-0.00075713,-0.00865950,0.01692095,-0
 .00162412,-0.08573217,0.09518809,-0.01813265,0.00954253,-0.02518012,0.
 00533845,0.00004145,-0.00001703,-0.00007584,-0.00014335,0.00003776,0.0
 0011287,-0.00011553,-0.00017396,-0.00008274,0.00044396,-0.00009720,0.0
 0020173,-0.00094535,0.00064234,0.00332129,0.00014792,-0.00015034,-0.00
 054851,-0.00737293,0.01669960,-0.00262744,0.09689752,0.00333105,-0.000
 01308,0.00178425,-0.00104084,-0.00099591,-0.00045795,0.00109061,-0.000
 48987,0.00097550,-0.00049962,0.00015573,-0.00017567,0.00017809,-0.0000
 7902,0.00004332,-0.00010833,0.00004321,-0.00036082,0.00000167,0.000055
 52,-0.00002240,0.00011935,0.00004734,0.00005671,-0.00003168,0.00002729
 ,-0.00001135,-0.00003511,0.00001166,-0.00002744,-0.00003714,0.00001569
 ,-0.00002062,-0.00001045,-0.00000521,0.00000549,0.00001706,0.00000536,
 0.00000574,0.00003142,-0.00000985,-0.00004059,0.00000604,-0.00000669,-
 0.00000892,-0.00003874,0.00001610,0.00001693,-0.00020716,-0.00004763,-
 0.00023332,-0.00026698,0.00020768,0.00058928,0.00412707,-0.00809278,0.
 00059899,0.09128842,-0.27084245,0.03942027,0.00652867,-0.02037984,0.00
 413356,0.00000738,-0.00003659,-0.00009124,-0.00004523,0.00013800,0.000
 07581,-0.00008556,0.00027221,-0.00002648,-0.00035548,-0.00014404,-0.00
 050719,0.00075348,0.00108422,-0.00122734,0.00005510,0.00073821,-0.0002
 3966,-0.00104827,0.00347341,0.00008301,-0.10030726,0.29514798,-0.00151
 798,0.00037343,-0.00098722,0.00015831,0.00004397,0.00019948,0.00037781
 ,-0.00049983,-0.00008496,0.00008278,0.00013689,-0.00000090,-0.00000670
 ,-0.00006123,-0.00006755,-0.00011720,0.00004990,0.00011366,0.00004784,
 0.00002183,-0.00004286,0.00003141,0.00002584,0.00004592,0.00001003,0.0
 0002877,0.00000116,0.00001103,-0.00000501,0.00001877,-0.00001753,-0.00
 000569,0.00000527,-0.00000815,-0.00000323,-0.00001023,0.00002783,-0.00
 000452,0.00001646,0.00001350,-0.00001279,-0.00003584,-0.00000284,0.000
 03419,-0.00000774,0.00001271,-0.00001959,0.00002327,-0.00015228,0.0000
 3889,-0.00010310,0.00057407,-0.00062472,0.00192522,0.01181601,-0.02679
 854,0.00319695,-0.01853257,0.04163652,-0.05733183,-0.00203050,0.006534
 59,-0.00201610,-0.00008257,-0.00002488,0.00000953,0.00010183,0.0001597
 9,-0.00001935,-0.00002330,0.00040156,0.00018418,-0.00040423,0.00040574
 ,-0.00047708,0.00307460,-0.00224028,-0.00442304,-0.00057643,0.00056520
 ,0.00115306,-0.00922548,0.02378044,-0.00422627,0.01519496,-0.04485083,
 0.06206062,0.00008943,-0.00033112,0.00045489,-0.00258372,-0.00140133,-
 0.00391539,-0.01019629,0.01810962,-0.00632171,0.00141297,0.00005365,0.
 00063962,-0.00037689,0.00027160,0.00014422,0.00047362,0.00079973,-0.00
 024990,-0.00034699,-0.00020895,0.00005979,-0.00017959,-0.00011419,0.00
 004807,0.00001947,-0.00003600,0.00000195,0.00018015,-0.00005545,0.0001
 1503,0.00006170,-0.00002749,0.00004279,0.00002346,0.00000455,-0.000000
 07,-0.00011675,0.00004265,-0.00008054,-0.00007950,0.00002776,0.0000128
 3,0.00002728,0.00009853,-0.00002917,0.00007191,-0.00004633,-0.00000298
 ,0.00020936,0.00008219,0.00088942,-0.00007493,0.00004291,-0.00003876,0
 .00161138,-0.00046914,-0.00066606,0.00912028,-0.02445770,0.00820466,-0
 .08371040,0.08869947,-0.02771278,-0.00000991,-0.00022803,0.00011522,0.
 00046903,-0.00030478,-0.00004744,0.00004839,0.00001154,0.00004826,-0.0
 0013500,-0.00007811,-0.00005899,-0.00026191,0.00063753,-0.00010222,0.0
 0001566,0.00017190,-0.00035994,0.00133257,0.00071074,-0.00026351,-0.00
 378171,-0.00348161,0.00147354,0.09384140,0.00025404,0.00051336,0.00002
 630,-0.00165873,-0.00022181,-0.00066492,-0.00163960,0.00276309,-0.0018
 9705,-0.00054937,0.00096220,-0.00052659,0.00031043,0.00015209,0.000028
 21,-0.00034468,0.00029117,-0.00002925,-0.00003714,0.00007442,0.0000057
 6,0.00000650,0.00002977,-0.00005620,0.00002032,-0.00000015,0.00001332,
 -0.00000166,0.00001012,0.00001634,-0.00002046,0.00000614,-0.00001036,-
 0.00000102,-0.00000713,0.00000815,-0.00000611,-0.00000707,-0.00000625,
 0.00002150,0.00000263,0.00002901,-0.00001304,-0.00006444,0.00004008,-0
 .00002953,0.00001937,-0.00000989,0.00028811,-0.00001391,-0.00006861,-0
 .00031649,-0.00011387,0.00003792,0.00083518,0.00081339,-0.00050194,0.0
 0665313,-0.02071678,0.00577832,0.09102333,-0.24733995,0.06570241,-0.00
 004063,0.00015687,0.00007709,-0.00025446,0.00021319,-0.00009848,0.0000
 3670,0.00002328,0.00005211,-0.00002788,0.00001263,-0.00013844,-0.00050
 398,0.00048515,0.00064686,-0.00015135,0.00031222,-0.00022122,0.0001303
 4,0.00069813,-0.00048015,-0.00410246,-0.00126554,0.00073625,-0.0936262
 8,0.27139113,0.00040218,0.00024564,0.00045738,-0.00395423,-0.00257562,
 -0.00280744,-0.01229502,0.02569536,-0.00989801,0.00224785,0.00005549,0
 .00114163,-0.00019356,0.00029448,0.00008671,0.00027723,0.00098763,-0.0
 0053383,-0.00040631,-0.00020179,0.00010375,-0.00010759,-0.00001874,-0.
 00018784,0.00004426,-0.00005463,0.00001106,0.00009241,-0.00002963,0.00
 004762,0.00004819,-0.00001323,0.00002732,0.00001831,-0.00000079,0.0000
 0138,-0.00010743,0.00005000,-0.00012141,-0.00000485,0.00001619,0.00012
 013,-0.00002449,-0.00008882,0.00008517,-0.00000510,0.00001311,-0.00004
 327,0.00030368,0.00027771,0.00085774,0.00003056,-0.00017848,-0.0002122
 2,-0.00078799,0.00069969,0.00008042,-0.00176322,0.00497033,-0.00197360
 ,-0.02791013,0.06409273,-0.07092382,0.00007929,-0.00036757,0.00032558,
 0.00018652,-0.00052963,-0.00074223,0.00003861,0.00000944,-0.00003692,-
 0.00008372,-0.00009541,0.00014023,0.00031651,-0.00012760,-0.00003440,0
 .00005412,-0.00020136,0.00009037,0.00015798,-0.00067621,0.00042268,0.0
 0077602,0.00048764,0.00082071,0.03361607,-0.07167929,0.07483188,0.0000
 3047,0.00008259,-0.00010006,0.00168712,-0.00065584,0.00044487,0.009026
 63,-0.00754598,-0.01639763,0.00158981,0.00127609,0.00036491,0.00001296
 ,0.00008334,0.00005091,0.00012423,-0.00010100,-0.00012891,0.00000522,0
 .00001477,0.00002555,-0.00014202,0.00008523,-0.00010060,0.00000040,0.0
 0000510,0.00001999,0.00006434,0.00000096,0.00004873,-0.00000222,0.0000
 0441,0.00000032,0.00000234,-0.00000544,0.00002073,-0.00000421,-0.00000
 614,0.00000593,-0.00000468,-0.00001341,0.00005566,-0.00027075,-0.00009
 285,0.00007744,0.00006296,0.00003770,0.00004947,-0.00228822,-0.0007758
 8,-0.00282527,-0.00024500,-0.00011009,-0.00019523,-0.00302484,-0.00468
 862,-0.00066310,-0.01322459,0.00926851,0.01760210,-0.13734913,0.055782
 18,0.11614289,0.00065294,-0.00030918,-0.00097744,-0.00002333,-0.000072
 45,-0.00003055,0.00010326,0.00006650,0.00008329,0.00007486,0.00004045,
 0.00007180,0.00027459,-0.00008667,-0.00038187,-0.00066375,0.00028922,0
 .00156227,0.00014268,0.00050601,-0.00048425,0.00104614,0.00006404,-0.0
 0031047,-0.00715445,0.00374532,0.00895384,0.14949624,-0.00007546,0.000
 22756,-0.00046657,-0.00032374,0.00019835,0.00113116,0.00428629,-0.0034
 2737,-0.00333504,0.00023447,0.00018156,0.00040452,-0.00022597,0.000113
 49,-0.00003091,0.00001309,0.00018648,-0.00006128,-0.00007162,-0.000026
 02,0.00004223,-0.00009825,0.00009862,-0.00022575,-0.00003624,-0.000016
 50,-0.00001311,0.00009398,-0.00001534,0.00008279,0.00001770,-0.0000037
 9,0.00000481,0.00001425,-0.00000271,0.00001793,-0.00002480,0.00000464,
 -0.00002111,0.00000454,-0.00005370,0.00006080,-0.00007402,0.00011150,0
 .00007741,0.00007523,-0.00009878,0.00006045,-0.00117004,0.00019779,-0.
 00076625,-0.00013272,-0.00012639,-0.00017693,-0.00317370,-0.00308400,0
 .00003553,-0.01289274,0.00800454,0.01781368,0.05480530,-0.07992122,-0.
 06988804,0.00017155,0.00028747,-0.00048040,-0.00023981,0.00029651,0.00
 031501,0.00010604,0.00003566,0.00001004,0.00004302,0.00001616,0.000013
 61,-0.00026639,0.00019509,0.00010491,-0.00077823,0.00040596,0.00097627
 ,0.00068497,0.00066693,-0.00051233,0.00081999,0.00096889,0.00017733,0.
 01510215,-0.00917973,-0.02105664,-0.05688884,0.08375837,0.00001809,0.0
 0122371,0.00021766,0.00114154,-0.00163276,0.00225302,0.01641417,-0.010
 21604,-0.02490497,0.00004250,0.00129593,0.00243127,-0.00001682,-0.0001
 9160,0.00004680,-0.00026512,0.00003752,-0.00058160,-0.00002511,0.00002
 266,0.00002142,0.00012215,0.00019425,-0.00033192,-0.00008051,0.0000200
 3,-0.00001596,0.00014392,0.00007235,0.00013506,-0.00001587,0.00001551,
 -0.00001907,0.00001324,-0.00000469,0.00005950,0.00000972,0.00000321,-0
 .00000497,0.00012589,-0.00004305,0.00015908,-0.00014628,-0.00014123,0.
 00030865,-0.00009446,0.00003497,-0.00000928,-0.00477545,-0.00040800,-0
 .00295300,-0.00033979,-0.00030039,0.00046331,0.00041850,0.00103671,0.0
 0109849,0.00277383,-0.00099661,-0.00351043,0.11214347,-0.06854857,-0.1
 9183056,0.00095562,-0.00043345,-0.00138107,-0.00001060,-0.00004978,0.0
 0019552,0.00006652,0.00007272,0.00004063,0.00004250,0.00009504,-0.0000
 4774,0.00009369,-0.00011736,-0.00007694,0.00013869,-0.00025547,-0.0001
 4915,0.00013408,0.00029264,0.00031313,-0.00002587,0.00002533,0.0000597
 9,-0.00601692,0.00319051,0.00786322,-0.12298531,0.07570590,0.21015011\
 \0.00000039,0.00000011,0.00000444,-0.00000011,0.00000416,0.00000020,-0
 .00000055,-0.00000497,0.00000035,0.00000094,-0.00000077,-0.00000542,-0
 .00000040,0.00000017,-0.00000762,-0.00000114,-0.00000166,-0.00000347,0
 .00000270,0.00000325,-0.00000246,-0.00000194,-0.00000414,-0.00000315,-
 0.00000029,-0.00000179,-0.00001072,0.00000250,0.00000326,-0.00000862,0
 .00000153,0.00000327,0.00000014,0.00000396,0.00000618,-0.00000328,0.00
 000199,0.00000296,-0.00000591,-0.00000263,-0.00000473,-0.00000575,-0.0
 0000393,-0.00000692,-0.00000341,-0.00000295,-0.00000460,0.00000060,0.0
 0000236,0.00000354,-0.00000073,0.00000187,0.00000405,0.00000385,0.0000
 0075,0.00000075,0.00000613,-0.00000311,-0.00000325,0.00000630,-0.00000
 191,-0.00000318,0.00000081,0.00000363,0.00000579,-0.00000261,0.0000018
 7,0.00000275,-0.00000289,0.00000415,0.00000738,0.00000455,0.00000257,0
 .00000546,0.00000626,-0.00000003,0.00000030,0.00000473,0.00000052,0.00
 000182,0.00001017,-0.00000383,-0.00000540,0.00000780,-0.00000192,-0.00
 000183,0.00000875,-0.00000285,-0.00000528,-0.00000062,-0.00000415,-0.0
 0000667,0.00000162\\\@
 The archive entry for this job was punched.


 ASKING DUMB QUESTIONS IS EASIER THAN CORECTING DUMB MISTAKES.
 Job cpu time:       1 days  1 hours 29 minutes 26.5 seconds.
 Elapsed time:       0 days  1 hours 16 minutes 28.8 seconds.
 File lengths (MBytes):  RWF=   1189 Int=      0 D2E=      0 Chk=     31 Scr=      1
 Normal termination of Gaussian 16 at Tue Jan  7 19:52:07 2025.
