 Entering Gaussian System, Link 0=g16
 Input=gjfs/data_set_12-catalyst-33.gjf
 Output=gjfs/data_set_12-catalyst-33.log
 Initial command:
 /usr/local/intel/g16/l1.exe "/scr/Gau-1092337.inp" -scrdir="/scr/"
 Entering Link 1 = /usr/local/intel/g16/l1.exe PID=   1092345.
  
 Copyright (c) 1988-2019, Gaussian, Inc.  All Rights Reserved.
  
 This is part of the Gaussian(R) 16 program.  It is based on
 the Gaussian(R) 09 system (copyright 2009, Gaussian, Inc.),
 the Gaussian(R) 03 system (copyright 2003, Gaussian, Inc.),
 the Gaussian(R) 98 system (copyright 1998, Gaussian, Inc.),
 the Gaussian(R) 94 system (copyright 1995, Gaussian, Inc.),
 the Gaussian 92(TM) system (copyright 1992, Gaussian, Inc.),
 the Gaussian 90(TM) system (copyright 1990, Gaussian, Inc.),
 the Gaussian 88(TM) system (copyright 1988, Gaussian, Inc.),
 the Gaussian 86(TM) system (copyright 1986, Carnegie Mellon
 University), and the Gaussian 82(TM) system (copyright 1983,
 Carnegie Mellon University). Gaussian is a federally registered
 trademark of Gaussian, Inc.
  
 This software contains proprietary and confidential information,
 including trade secrets, belonging to Gaussian, Inc.
  
 This software is provided under written license and may be
 used, copied, transmitted, or stored only in accord with that
 written license.
  
 The following legend is applicable only to US Government
 contracts under FAR:
  
                    RESTRICTED RIGHTS LEGEND
  
 Use, reproduction and disclosure by the US Government is
 subject to restrictions as set forth in subparagraphs (a)
 and (c) of the Commercial Computer Software - Restricted
 Rights clause in FAR 52.227-19.
  
 Gaussian, Inc.
 340 Quinnipiac St., Bldg. 40, Wallingford CT 06492
  
  
 ---------------------------------------------------------------
 Warning -- This program may not be used in any manner that
 competes with the business of Gaussian, Inc. or will provide
 assistance to any competitor of Gaussian, Inc.  The licensee
 of this program is prohibited from giving any competitor of
 Gaussian, Inc. access to this program.  By using this program,
 the user acknowledges that Gaussian, Inc. is engaged in the
 business of creating and licensing software in the field of
 computational chemistry and represents and warrants to the
 licensee that it is not a competitor of Gaussian, Inc. and that
 it will not use this program in any manner prohibited above.
 ---------------------------------------------------------------
  

 Cite this work as:
 Gaussian 16, Revision C.01,
 M. J. Frisch, G. W. Trucks, H. B. Schlegel, G. E. Scuseria, 
 M. A. Robb, J. R. Cheeseman, G. Scalmani, V. Barone, 
 G. A. Petersson, H. Nakatsuji, X. Li, M. Caricato, A. V. Marenich, 
 J. Bloino, B. G. Janesko, R. Gomperts, B. Mennucci, H. P. Hratchian, 
 J. V. Ortiz, A. F. Izmaylov, J. L. Sonnenberg, D. Williams-Young, 
 F. Ding, F. Lipparini, F. Egidi, J. Goings, B. Peng, A. Petrone, 
 T. Henderson, D. Ranasinghe, V. G. Zakrzewski, J. Gao, N. Rega, 
 G. Zheng, W. Liang, M. Hada, M. Ehara, K. Toyota, R. Fukuda, 
 J. Hasegawa, M. Ishida, T. Nakajima, Y. Honda, O. Kitao, H. Nakai, 
 T. Vreven, K. Throssell, J. A. Montgomery, Jr., J. E. Peralta, 
 F. Ogliaro, M. J. Bearpark, J. J. Heyd, E. N. Brothers, K. N. Kudin, 
 V. N. Staroverov, T. A. Keith, R. Kobayashi, J. Normand, 
 K. Raghavachari, A. P. Rendell, J. C. Burant, S. S. Iyengar, 
 J. Tomasi, M. Cossi, J. M. Millam, M. Klene, C. Adamo, R. Cammi, 
 J. W. Ochterski, R. L. Martin, K. Morokuma, O. Farkas, 
 J. B. Foresman, and D. J. Fox, Gaussian, Inc., Wallingford CT, 2019.
 
 ******************************************
 Gaussian 16:  ES64L-G16RevC.01  3-Jul-2019
                 7-Jan-2025 
 ******************************************
 %nprocshared=20
 Will use up to   20 processors via shared memory.
 %mem=30GB
 %chk=outputs/data_set_12-catalyst-33.chk
 ----------------------------------
 #p M062X/DEF2TZVP opt freq pop=NBO
 ----------------------------------
 1/18=20,19=15,26=3,38=1/1,3;
 2/9=110,12=2,17=6,18=5,40=1/2;
 3/5=44,7=101,11=2,25=1,30=1,71=1,74=-55/1,2,3;
 4//1;
 5/5=2,38=5/2;
 6/7=2,8=2,9=2,10=2,28=1,40=1/1,7;
 7//1,2,3,16;
 1/18=20,19=15,26=3/3(2);
 2/9=110/2;
 99//99;
 2/9=110/2;
 3/5=44,7=101,11=2,25=1,30=1,71=1,74=-55/1,2,3;
 4/5=5,16=3,69=1/1;
 5/5=2,38=5/2;
 7//1,2,3,16;
 1/18=20,19=15,26=3/3(-5);
 2/9=110/2;
 6/7=2,8=2,9=2,10=2,19=2,28=1,40=1/1,7;
 99/9=1/99;
 Leave Link    1 at Tue Jan  7 16:43:06 2025, MaxMem=  4026531840 cpu:               0.8 elap:               0.2
 (Enter /usr/local/intel/g16/l101.exe)
 -----------------------
 data_set_12-catalyst-33
 -----------------------
 Symbolic Z-matrix:
 Charge =  0 Multiplicity = 2
 O                    -1.38202   0.35746  -1.50577 
 N                    -1.14722   0.34126  -0.20084 
 C                    -1.96654  -0.62424   0.6053 
 C                    -1.57892  -0.57662   2.09156 
 C                     0.1109    0.97683   0.26742 
 C                    -3.44769  -0.24284   0.42678 
 C                    -1.68969  -2.05791   0.06405 
 C                     0.34276   2.31734  -0.47687 
 H                    -1.72911   0.42275   2.51282 
 H                    -0.54235  -0.88698   2.25928 
 H                    -3.72225  -0.23653  -0.62919 
 H                    -3.63558   0.75054   0.8483 
 H                    -4.08088  -0.97313   0.94084 
 O                    -2.1946   -2.28108  -1.2655 
 H                    -2.20344  -2.77864   0.70626 
 H                    -0.60753  -2.2504    0.11005 
 C                     1.64616   2.97336   0.01546 
 C                    -0.85519   3.26299  -0.27257 
 H                    -2.22835  -1.26569   2.6398 
 H                    -0.02685   1.21623   1.32647 
 H                     1.60375   3.16807   1.09566 
 H                     1.79492   3.93271  -0.49119 
 H                     2.5192    2.34446  -0.18306 
 H                    -0.99846   3.48393   0.79401 
 H                    -1.77733   2.82742  -0.66664 
 H                    -0.67989   4.21253  -0.78963 
 C                     1.27921   0.00356   0.13266 
 C                     2.09569  -0.27866   1.23926 
 C                     3.183    -1.15716   1.11977 
 C                     3.45917  -1.76539  -0.11323 
 C                     2.64489  -1.48717  -1.22341 
 C                     1.56239  -0.60672  -1.10285 
 H                     0.4356    2.09555  -1.54542 
 H                     1.88665   0.1938    2.19604 
 H                     3.80766  -1.36638   1.98192 
 H                     4.29638  -2.44874  -0.20885 
 H                     2.85196  -1.95827  -2.17853 
 H                     0.92774  -0.39884  -1.95882 
 H                    -1.96518  -1.50852  -1.82408 
 
 ITRead=  0  0  0  0  0  0  0  0  0  0  0  0  0  0  0  0  0  0  0  0
 ITRead=  0  0  0  0  0  0  0  0  0  0  0  0  0  0  0  0  0  0  0
 MicOpt= -1 -1 -1 -1 -1 -1 -1 -1 -1 -1 -1 -1 -1 -1 -1 -1 -1 -1 -1 -1
 MicOpt= -1 -1 -1 -1 -1 -1 -1 -1 -1 -1 -1 -1 -1 -1 -1 -1 -1 -1 -1
 NAtoms=     39 NQM=       39 NQMF=       0 NMMI=      0 NMMIF=      0
                NMic=       0 NMicF=      0.
                    Isotopes and Nuclear Properties:
 (Nuclear quadrupole moments (NQMom) in fm**2, nuclear magnetic moments (NMagM)
  in nuclear magnetons)

  Atom         1           2           3           4           5           6           7           8           9          10
 IAtWgt=          16          14          12          12          12          12          12          12           1           1
 AtmWgt=  15.9949146  14.0030740  12.0000000  12.0000000  12.0000000  12.0000000  12.0000000  12.0000000   1.0078250   1.0078250
 NucSpn=           0           2           0           0           0           0           0           0           1           1
 AtZEff=  -0.0000000  -0.0000000  -0.0000000  -0.0000000  -0.0000000  -0.0000000  -0.0000000  -0.0000000  -0.0000000  -0.0000000
 NQMom=    0.0000000   2.0440000   0.0000000   0.0000000   0.0000000   0.0000000   0.0000000   0.0000000   0.0000000   0.0000000
 NMagM=    0.0000000   0.4037610   0.0000000   0.0000000   0.0000000   0.0000000   0.0000000   0.0000000   2.7928460   2.7928460
 AtZNuc=   8.0000000   7.0000000   6.0000000   6.0000000   6.0000000   6.0000000   6.0000000   6.0000000   1.0000000   1.0000000

  Atom        11          12          13          14          15          16          17          18          19          20
 IAtWgt=           1           1           1          16           1           1          12          12           1           1
 AtmWgt=   1.0078250   1.0078250   1.0078250  15.9949146   1.0078250   1.0078250  12.0000000  12.0000000   1.0078250   1.0078250
 NucSpn=           1           1           1           0           1           1           0           0           1           1
 AtZEff=  -0.0000000  -0.0000000  -0.0000000  -0.0000000  -0.0000000  -0.0000000  -0.0000000  -0.0000000  -0.0000000  -0.0000000
 NQMom=    0.0000000   0.0000000   0.0000000   0.0000000   0.0000000   0.0000000   0.0000000   0.0000000   0.0000000   0.0000000
 NMagM=    2.7928460   2.7928460   2.7928460   0.0000000   2.7928460   2.7928460   0.0000000   0.0000000   2.7928460   2.7928460
 AtZNuc=   1.0000000   1.0000000   1.0000000   8.0000000   1.0000000   1.0000000   6.0000000   6.0000000   1.0000000   1.0000000

  Atom        21          22          23          24          25          26          27          28          29          30
 IAtWgt=           1           1           1           1           1           1          12          12          12          12
 AtmWgt=   1.0078250   1.0078250   1.0078250   1.0078250   1.0078250   1.0078250  12.0000000  12.0000000  12.0000000  12.0000000
 NucSpn=           1           1           1           1           1           1           0           0           0           0
 AtZEff=  -0.0000000  -0.0000000  -0.0000000  -0.0000000  -0.0000000  -0.0000000  -0.0000000  -0.0000000  -0.0000000  -0.0000000
 NQMom=    0.0000000   0.0000000   0.0000000   0.0000000   0.0000000   0.0000000   0.0000000   0.0000000   0.0000000   0.0000000
 NMagM=    2.7928460   2.7928460   2.7928460   2.7928460   2.7928460   2.7928460   0.0000000   0.0000000   0.0000000   0.0000000
 AtZNuc=   1.0000000   1.0000000   1.0000000   1.0000000   1.0000000   1.0000000   6.0000000   6.0000000   6.0000000   6.0000000

  Atom        31          32          33          34          35          36          37          38          39
 IAtWgt=          12          12           1           1           1           1           1           1           1
 AtmWgt=  12.0000000  12.0000000   1.0078250   1.0078250   1.0078250   1.0078250   1.0078250   1.0078250   1.0078250
 NucSpn=           0           0           1           1           1           1           1           1           1
 AtZEff=  -0.0000000  -0.0000000  -0.0000000  -0.0000000  -0.0000000  -0.0000000  -0.0000000  -0.0000000  -0.0000000
 NQMom=    0.0000000   0.0000000   0.0000000   0.0000000   0.0000000   0.0000000   0.0000000   0.0000000   0.0000000
 NMagM=    0.0000000   0.0000000   2.7928460   2.7928460   2.7928460   2.7928460   2.7928460   2.7928460   2.7928460
 AtZNuc=   6.0000000   6.0000000   1.0000000   1.0000000   1.0000000   1.0000000   1.0000000   1.0000000   1.0000000
 Leave Link  101 at Tue Jan  7 16:43:08 2025, MaxMem=  4026531840 cpu:              16.1 elap:               1.0
 (Enter /usr/local/intel/g16/l103.exe)

 GradGradGradGradGradGradGradGradGradGradGradGradGradGradGradGradGradGrad
 Berny optimization.
 Initialization pass.
                           ----------------------------
                           !    Initial Parameters    !
                           ! (Angstroms and Degrees)  !
 --------------------------                            --------------------------
 ! Name  Definition              Value          Derivative Info.                !
 --------------------------------------------------------------------------------
 ! R1    R(1,2)                  1.326          estimate D2E/DX2                !
 ! R2    R(2,3)                  1.5011         estimate D2E/DX2                !
 ! R3    R(2,5)                  1.4853         estimate D2E/DX2                !
 ! R4    R(3,4)                  1.5367         estimate D2E/DX2                !
 ! R5    R(3,6)                  1.5399         estimate D2E/DX2                !
 ! R6    R(3,7)                  1.5572         estimate D2E/DX2                !
 ! R7    R(4,9)                  1.0949         estimate D2E/DX2                !
 ! R8    R(4,10)                 1.095          estimate D2E/DX2                !
 ! R9    R(4,19)                 1.0941         estimate D2E/DX2                !
 ! R10   R(5,8)                  1.5507         estimate D2E/DX2                !
 ! R11   R(5,20)                 1.0945         estimate D2E/DX2                !
 ! R12   R(5,27)                 1.5266         estimate D2E/DX2                !
 ! R13   R(6,11)                 1.0911         estimate D2E/DX2                !
 ! R14   R(6,12)                 1.0953         estimate D2E/DX2                !
 ! R15   R(6,13)                 1.0948         estimate D2E/DX2                !
 ! R16   R(7,14)                 1.4396         estimate D2E/DX2                !
 ! R17   R(7,15)                 1.0935         estimate D2E/DX2                !
 ! R18   R(7,16)                 1.1001         estimate D2E/DX2                !
 ! R19   R(8,17)                 1.54           estimate D2E/DX2                !
 ! R20   R(8,18)                 1.5398         estimate D2E/DX2                !
 ! R21   R(8,33)                 1.0953         estimate D2E/DX2                !
 ! R22   R(14,39)                0.9806         estimate D2E/DX2                !
 ! R23   R(17,21)                1.0984         estimate D2E/DX2                !
 ! R24   R(17,22)                1.0951         estimate D2E/DX2                !
 ! R25   R(17,23)                1.0941         estimate D2E/DX2                !
 ! R26   R(18,24)                1.0986         estimate D2E/DX2                !
 ! R27   R(18,25)                1.0933         estimate D2E/DX2                !
 ! R28   R(18,26)                1.0953         estimate D2E/DX2                !
 ! R29   R(27,28)                1.4039         estimate D2E/DX2                !
 ! R30   R(27,32)                1.4068         estimate D2E/DX2                !
 ! R31   R(28,29)                1.403          estimate D2E/DX2                !
 ! R32   R(28,34)                1.0874         estimate D2E/DX2                !
 ! R33   R(29,30)                1.4023         estimate D2E/DX2                !
 ! R34   R(29,35)                1.085          estimate D2E/DX2                !
 ! R35   R(30,31)                1.4046         estimate D2E/DX2                !
 ! R36   R(30,36)                1.0849         estimate D2E/DX2                !
 ! R37   R(31,32)                1.4006         estimate D2E/DX2                !
 ! R38   R(31,37)                1.0849         estimate D2E/DX2                !
 ! R39   R(32,38)                1.0857         estimate D2E/DX2                !
 ! A1    A(1,2,3)              116.0854         estimate D2E/DX2                !
 ! A2    A(1,2,5)              117.0665         estimate D2E/DX2                !
 ! A3    A(3,2,5)              124.6282         estimate D2E/DX2                !
 ! A4    A(2,3,4)              111.2105         estimate D2E/DX2                !
 ! A5    A(2,3,6)              107.664          estimate D2E/DX2                !
 ! A6    A(2,3,7)              107.9666         estimate D2E/DX2                !
 ! A7    A(4,3,6)              110.3083         estimate D2E/DX2                !
 ! A8    A(4,3,7)              108.6532         estimate D2E/DX2                !
 ! A9    A(6,3,7)              111.0231         estimate D2E/DX2                !
 ! A10   A(3,4,9)              111.4573         estimate D2E/DX2                !
 ! A11   A(3,4,10)             112.2192         estimate D2E/DX2                !
 ! A12   A(3,4,19)             108.384          estimate D2E/DX2                !
 ! A13   A(9,4,10)             109.2475         estimate D2E/DX2                !
 ! A14   A(9,4,19)             107.4956         estimate D2E/DX2                !
 ! A15   A(10,4,19)            107.8569         estimate D2E/DX2                !
 ! A16   A(2,5,8)              110.1965         estimate D2E/DX2                !
 ! A17   A(2,5,20)             106.9804         estimate D2E/DX2                !
 ! A18   A(2,5,27)             110.342          estimate D2E/DX2                !
 ! A19   A(8,5,20)             107.1075         estimate D2E/DX2                !
 ! A20   A(8,5,27)             113.225          estimate D2E/DX2                !
 ! A21   A(20,5,27)            108.7356         estimate D2E/DX2                !
 ! A22   A(3,6,11)             110.8347         estimate D2E/DX2                !
 ! A23   A(3,6,12)             110.1825         estimate D2E/DX2                !
 ! A24   A(3,6,13)             109.6743         estimate D2E/DX2                !
 ! A25   A(11,6,12)            108.9066         estimate D2E/DX2                !
 ! A26   A(11,6,13)            108.2254         estimate D2E/DX2                !
 ! A27   A(12,6,13)            108.9696         estimate D2E/DX2                !
 ! A28   A(3,7,14)             113.6635         estimate D2E/DX2                !
 ! A29   A(3,7,15)             108.6109         estimate D2E/DX2                !
 ! A30   A(3,7,16)             108.7501         estimate D2E/DX2                !
 ! A31   A(14,7,15)            105.9876         estimate D2E/DX2                !
 ! A32   A(14,7,16)            110.8854         estimate D2E/DX2                !
 ! A33   A(15,7,16)            108.8001         estimate D2E/DX2                !
 ! A34   A(5,8,17)             109.9589         estimate D2E/DX2                !
 ! A35   A(5,8,18)             110.5411         estimate D2E/DX2                !
 ! A36   A(5,8,33)             107.8113         estimate D2E/DX2                !
 ! A37   A(17,8,18)            110.7581         estimate D2E/DX2                !
 ! A38   A(17,8,33)            109.0516         estimate D2E/DX2                !
 ! A39   A(18,8,33)            108.6475         estimate D2E/DX2                !
 ! A40   A(7,14,39)            108.7783         estimate D2E/DX2                !
 ! A41   A(8,17,21)            110.9304         estimate D2E/DX2                !
 ! A42   A(8,17,22)            109.8924         estimate D2E/DX2                !
 ! A43   A(8,17,23)            111.8685         estimate D2E/DX2                !
 ! A44   A(21,17,22)           107.7544         estimate D2E/DX2                !
 ! A45   A(21,17,23)           108.1272         estimate D2E/DX2                !
 ! A46   A(22,17,23)           108.132          estimate D2E/DX2                !
 ! A47   A(8,18,24)            110.718          estimate D2E/DX2                !
 ! A48   A(8,18,25)            111.3269         estimate D2E/DX2                !
 ! A49   A(8,18,26)            110.1971         estimate D2E/DX2                !
 ! A50   A(24,18,25)           108.6659         estimate D2E/DX2                !
 ! A51   A(24,18,26)           107.7482         estimate D2E/DX2                !
 ! A52   A(25,18,26)           108.072          estimate D2E/DX2                !
 ! A53   A(5,27,28)            120.2446         estimate D2E/DX2                !
 ! A54   A(5,27,32)            120.5408         estimate D2E/DX2                !
 ! A55   A(28,27,32)           119.2089         estimate D2E/DX2                !
 ! A56   A(27,28,29)           120.6298         estimate D2E/DX2                !
 ! A57   A(27,28,34)           119.6327         estimate D2E/DX2                !
 ! A58   A(29,28,34)           119.7362         estimate D2E/DX2                !
 ! A59   A(28,29,30)           119.9407         estimate D2E/DX2                !
 ! A60   A(28,29,35)           119.9511         estimate D2E/DX2                !
 ! A61   A(30,29,35)           120.1081         estimate D2E/DX2                !
 ! A62   A(29,30,31)           119.661          estimate D2E/DX2                !
 ! A63   A(29,30,36)           120.1757         estimate D2E/DX2                !
 ! A64   A(31,30,36)           120.1632         estimate D2E/DX2                !
 ! A65   A(30,31,32)           120.3017         estimate D2E/DX2                !
 ! A66   A(30,31,37)           119.9444         estimate D2E/DX2                !
 ! A67   A(32,31,37)           119.7535         estimate D2E/DX2                !
 ! A68   A(27,32,31)           120.2574         estimate D2E/DX2                !
 ! A69   A(27,32,38)           119.4522         estimate D2E/DX2                !
 ! A70   A(31,32,38)           120.2863         estimate D2E/DX2                !
 ! D1    D(1,2,3,4)            178.5072         estimate D2E/DX2                !
 ! D2    D(1,2,3,6)            -60.5423         estimate D2E/DX2                !
 ! D3    D(1,2,3,7)             59.3955         estimate D2E/DX2                !
 ! D4    D(5,2,3,4)             15.9933         estimate D2E/DX2                !
 ! D5    D(5,2,3,6)            136.9437         estimate D2E/DX2                !
 ! D6    D(5,2,3,7)           -103.1184         estimate D2E/DX2                !
 ! D7    D(1,2,5,8)             42.7673         estimate D2E/DX2                !
 ! D8    D(1,2,5,20)           158.8746         estimate D2E/DX2                !
 ! D9    D(1,2,5,27)           -83.0009         estimate D2E/DX2                !
 ! D10   D(3,2,5,8)           -154.8741         estimate D2E/DX2                !
 ! D11   D(3,2,5,20)           -38.7669         estimate D2E/DX2                !
 ! D12   D(3,2,5,27)            79.3577         estimate D2E/DX2                !
 ! D13   D(2,3,4,9)             59.6862         estimate D2E/DX2                !
 ! D14   D(2,3,4,10)           -63.2132         estimate D2E/DX2                !
 ! D15   D(2,3,4,19)           177.7869         estimate D2E/DX2                !
 ! D16   D(6,3,4,9)            -59.699          estimate D2E/DX2                !
 ! D17   D(6,3,4,10)           177.4017         estimate D2E/DX2                !
 ! D18   D(6,3,4,19)            58.4018         estimate D2E/DX2                !
 ! D19   D(7,3,4,9)            178.3864         estimate D2E/DX2                !
 ! D20   D(7,3,4,10)            55.4871         estimate D2E/DX2                !
 ! D21   D(7,3,4,19)           -63.5129         estimate D2E/DX2                !
 ! D22   D(2,3,6,11)            56.3059         estimate D2E/DX2                !
 ! D23   D(2,3,6,12)           -64.3089         estimate D2E/DX2                !
 ! D24   D(2,3,6,13)           175.742          estimate D2E/DX2                !
 ! D25   D(4,3,6,11)           177.8203         estimate D2E/DX2                !
 ! D26   D(4,3,6,12)            57.2056         estimate D2E/DX2                !
 ! D27   D(4,3,6,13)           -62.7436         estimate D2E/DX2                !
 ! D28   D(7,3,6,11)           -61.6764         estimate D2E/DX2                !
 ! D29   D(7,3,6,12)           177.7089         estimate D2E/DX2                !
 ! D30   D(7,3,6,13)            57.7597         estimate D2E/DX2                !
 ! D31   D(2,3,7,14)           -67.8395         estimate D2E/DX2                !
 ! D32   D(2,3,7,15)           174.4585         estimate D2E/DX2                !
 ! D33   D(2,3,7,16)            56.2021         estimate D2E/DX2                !
 ! D34   D(4,3,7,14)           171.4371         estimate D2E/DX2                !
 ! D35   D(4,3,7,15)            53.7351         estimate D2E/DX2                !
 ! D36   D(4,3,7,16)           -64.5213         estimate D2E/DX2                !
 ! D37   D(6,3,7,14)            49.959          estimate D2E/DX2                !
 ! D38   D(6,3,7,15)           -67.743          estimate D2E/DX2                !
 ! D39   D(6,3,7,16)           174.0006         estimate D2E/DX2                !
 ! D40   D(2,5,8,17)           179.8427         estimate D2E/DX2                !
 ! D41   D(2,5,8,18)            57.2441         estimate D2E/DX2                !
 ! D42   D(2,5,8,33)           -61.3779         estimate D2E/DX2                !
 ! D43   D(20,5,8,17)           63.8151         estimate D2E/DX2                !
 ! D44   D(20,5,8,18)          -58.7835         estimate D2E/DX2                !
 ! D45   D(20,5,8,33)         -177.4055         estimate D2E/DX2                !
 ! D46   D(27,5,8,17)          -56.0382         estimate D2E/DX2                !
 ! D47   D(27,5,8,18)         -178.6368         estimate D2E/DX2                !
 ! D48   D(27,5,8,33)           62.7412         estimate D2E/DX2                !
 ! D49   D(2,5,27,28)         -126.3437         estimate D2E/DX2                !
 ! D50   D(2,5,27,32)           54.5265         estimate D2E/DX2                !
 ! D51   D(8,5,27,28)          109.6167         estimate D2E/DX2                !
 ! D52   D(8,5,27,32)          -69.5131         estimate D2E/DX2                !
 ! D53   D(20,5,27,28)          -9.3017         estimate D2E/DX2                !
 ! D54   D(20,5,27,32)         171.5686         estimate D2E/DX2                !
 ! D55   D(3,7,14,39)           44.8321         estimate D2E/DX2                !
 ! D56   D(15,7,14,39)         164.0418         estimate D2E/DX2                !
 ! D57   D(16,7,14,39)         -78.045          estimate D2E/DX2                !
 ! D58   D(5,8,17,21)          -59.4316         estimate D2E/DX2                !
 ! D59   D(5,8,17,22)         -178.4827         estimate D2E/DX2                !
 ! D60   D(5,8,17,23)           61.3952         estimate D2E/DX2                !
 ! D61   D(18,8,17,21)          63.0388         estimate D2E/DX2                !
 ! D62   D(18,8,17,22)         -56.0123         estimate D2E/DX2                !
 ! D63   D(18,8,17,23)        -176.1344         estimate D2E/DX2                !
 ! D64   D(33,8,17,21)        -177.4463         estimate D2E/DX2                !
 ! D65   D(33,8,17,22)          63.5025         estimate D2E/DX2                !
 ! D66   D(33,8,17,23)         -56.6196         estimate D2E/DX2                !
 ! D67   D(5,8,18,24)           60.1642         estimate D2E/DX2                !
 ! D68   D(5,8,18,25)          -60.8333         estimate D2E/DX2                !
 ! D69   D(5,8,18,26)          179.2685         estimate D2E/DX2                !
 ! D70   D(17,8,18,24)         -61.9664         estimate D2E/DX2                !
 ! D71   D(17,8,18,25)         177.0361         estimate D2E/DX2                !
 ! D72   D(17,8,18,26)          57.1378         estimate D2E/DX2                !
 ! D73   D(33,8,18,24)         178.2762         estimate D2E/DX2                !
 ! D74   D(33,8,18,25)          57.2787         estimate D2E/DX2                !
 ! D75   D(33,8,18,26)         -62.6195         estimate D2E/DX2                !
 ! D76   D(5,27,28,29)        -179.0888         estimate D2E/DX2                !
 ! D77   D(5,27,28,34)           0.496          estimate D2E/DX2                !
 ! D78   D(32,27,28,29)          0.0525         estimate D2E/DX2                !
 ! D79   D(32,27,28,34)        179.6373         estimate D2E/DX2                !
 ! D80   D(5,27,32,31)         179.2801         estimate D2E/DX2                !
 ! D81   D(5,27,32,38)          -1.4568         estimate D2E/DX2                !
 ! D82   D(28,27,32,31)          0.1414         estimate D2E/DX2                !
 ! D83   D(28,27,32,38)        179.4045         estimate D2E/DX2                !
 ! D84   D(27,28,29,30)         -0.2041         estimate D2E/DX2                !
 ! D85   D(27,28,29,35)        179.9164         estimate D2E/DX2                !
 ! D86   D(34,28,29,30)       -179.7884         estimate D2E/DX2                !
 ! D87   D(34,28,29,35)          0.332          estimate D2E/DX2                !
 ! D88   D(28,29,30,31)          0.1609         estimate D2E/DX2                !
 ! D89   D(28,29,30,36)       -179.7299         estimate D2E/DX2                !
 ! D90   D(35,29,30,31)       -179.9598         estimate D2E/DX2                !
 ! D91   D(35,29,30,36)          0.1495         estimate D2E/DX2                !
 ! D92   D(29,30,31,32)          0.0322         estimate D2E/DX2                !
 ! D93   D(29,30,31,37)       -179.754          estimate D2E/DX2                !
 ! D94   D(36,30,31,32)        179.9229         estimate D2E/DX2                !
 ! D95   D(36,30,31,37)          0.1368         estimate D2E/DX2                !
 ! D96   D(30,31,32,27)         -0.1844         estimate D2E/DX2                !
 ! D97   D(30,31,32,38)       -179.4412         estimate D2E/DX2                !
 ! D98   D(37,31,32,27)        179.6022         estimate D2E/DX2                !
 ! D99   D(37,31,32,38)          0.3453         estimate D2E/DX2                !
 --------------------------------------------------------------------------------
 Trust Radius=3.00D-01 FncErr=1.00D-07 GrdErr=1.00D-06 EigMax=2.50D+02 EigMin=1.00D-04
 Number of steps in this run=    218 maximum allowed number of steps=    234.
 GradGradGradGradGradGradGradGradGradGradGradGradGradGradGradGradGradGrad

 Leave Link  103 at Tue Jan  7 16:43:08 2025, MaxMem=  4026531840 cpu:               0.2 elap:               0.1
 (Enter /usr/local/intel/g16/l202.exe)
                          Input orientation:                          
 ---------------------------------------------------------------------
 Center     Atomic      Atomic             Coordinates (Angstroms)
 Number     Number       Type             X           Y           Z
 ---------------------------------------------------------------------
      1          8           0       -1.382021    0.357455   -1.505771
      2          7           0       -1.147223    0.341258   -0.200843
      3          6           0       -1.966537   -0.624238    0.605296
      4          6           0       -1.578919   -0.576619    2.091561
      5          6           0        0.110903    0.976829    0.267418
      6          6           0       -3.447688   -0.242840    0.426781
      7          6           0       -1.689685   -2.057908    0.064053
      8          6           0        0.342763    2.317341   -0.476872
      9          1           0       -1.729112    0.422746    2.512822
     10          1           0       -0.542352   -0.886981    2.259281
     11          1           0       -3.722248   -0.236531   -0.629189
     12          1           0       -3.635579    0.750539    0.848296
     13          1           0       -4.080882   -0.973133    0.940839
     14          8           0       -2.194600   -2.281081   -1.265495
     15          1           0       -2.203439   -2.778636    0.706260
     16          1           0       -0.607527   -2.250400    0.110050
     17          6           0        1.646155    2.973357    0.015462
     18          6           0       -0.855190    3.262992   -0.272574
     19          1           0       -2.228353   -1.265694    2.639802
     20          1           0       -0.026853    1.216229    1.326468
     21          1           0        1.603752    3.168067    1.095657
     22          1           0        1.794919    3.932713   -0.491191
     23          1           0        2.519197    2.344460   -0.183064
     24          1           0       -0.998458    3.483930    0.794007
     25          1           0       -1.777334    2.827423   -0.666637
     26          1           0       -0.679891    4.212526   -0.789630
     27          6           0        1.279211    0.003556    0.132664
     28          6           0        2.095687   -0.278657    1.239256
     29          6           0        3.183000   -1.157156    1.119771
     30          6           0        3.459166   -1.765388   -0.113233
     31          6           0        2.644893   -1.487166   -1.223406
     32          6           0        1.562388   -0.606715   -1.102846
     33          1           0        0.435603    2.095551   -1.545419
     34          1           0        1.886646    0.193799    2.196038
     35          1           0        3.807664   -1.366383    1.981921
     36          1           0        4.296376   -2.448736   -0.208845
     37          1           0        2.851962   -1.958266   -2.178532
     38          1           0        0.927741   -0.398838   -1.958816
     39          1           0       -1.965182   -1.508518   -1.824077
 ---------------------------------------------------------------------
                    Distance matrix (angstroms):
                    1          2          3          4          5
     1  O    0.000000
     2  N    1.325982   0.000000
     3  C    2.400413   1.501106   0.000000
     4  C    3.721836   2.506786   1.536717   0.000000
     5  C    2.399301   1.485295   2.644491   2.931927   0.000000
     6  C    2.891728   2.455040   1.539851   2.524916   3.765177
     7  C    2.897065   2.473951   1.557241   2.513419   3.534558
     8  C    2.806184   2.490212   3.893179   4.320268   1.550709
     9  H    4.034083   2.776547   2.188881   1.094874   2.955419
    10  H    4.053305   2.815431   2.198409   1.094955   2.805004
    11  H    2.568633   2.673588   2.181007   3.480230   4.119368
    12  H    3.282479   2.731322   2.175951   2.745343   3.797993
    13  H    3.878172   3.411366   2.169049   2.782302   4.671928
    14  O    2.771261   3.017805   2.509382   3.814981   4.275412
    15  H    3.924650   3.416455   2.169734   2.675437   4.433089
    16  H    3.164115   2.665449   2.176368   2.769753   3.309972
    17  C    4.280998   3.844177   5.132459   5.226243   2.531127
    18  C    3.200074   2.937168   4.137186   4.566786   2.539974
    19  H    4.531740   3.438081   2.149239   1.094147   4.016122
    20  H    3.255081   2.086500   2.769437   2.491702   1.094475
    21  H    4.856110   4.152063   5.231538   5.014369   2.777787
    22  H    4.889253   4.651779   6.009712   6.195762   3.485491
    23  H    4.573537   4.178010   5.436588   5.522787   2.805927
    24  H    3.900121   3.299734   4.224906   4.302167   2.791690
    25  H    2.638401   2.606726   3.683419   4.385718   2.804032
    26  H    3.983393   3.943575   5.195725   5.660868   3.494630
    27  C    3.145134   2.472418   3.339519   3.513230   1.526553
    28  C    4.475965   3.602033   4.125893   3.783905   2.541669
    29  C    5.479684   4.768658   5.202540   4.894617   3.836428
    30  C    5.466509   5.066010   5.590775   5.626419   4.344596
    31  C    4.438287   4.332310   5.035284   5.445979   3.836005
    32  C    3.124343   3.009029   3.920634   4.480285   2.547949
    33  H    2.515215   2.718596   4.218187   4.942309   2.154843
    34  H    4.941089   3.869256   4.248137   3.551704   2.736051
    35  H    6.486019   5.677271   5.982246   5.445275   4.700660
    36  H    6.465363   6.116936   6.573865   6.581473   5.429503
    37  H    4.872554   5.019218   5.722522   6.306770   4.702218
    38  H    2.472292   2.818455   3.873283   4.766603   2.741496
    39  H    1.980720   2.593379   2.585306   4.043495   3.855053
                    6          7          8          9         10
     6  C    0.000000
     7  C    2.552767   0.000000
     8  C    4.662471   4.854508   0.000000
     9  H    2.783536   3.485924   4.101271   0.000000
    10  H    3.494846   2.739794   4.305536   1.785516   0.000000
    11  H    1.091098   2.815903   4.803101   3.778819   4.344892
    12  H    1.095345   3.505555   4.476399   2.552001   3.773646
    13  H    1.094769   2.768269   5.692606   3.154430   3.777156
    14  O    2.930606   1.439598   5.310897   4.669372   4.134910
    15  H    2.838402   1.093536   5.818241   3.706413   2.957946
    16  H    3.492439   1.100107   4.702317   3.765232   2.546047
    17  C    6.038240   6.036871   1.539994   4.912723   4.972574
    18  C    4.415994   5.396450   1.539833   4.072980   4.871389
    19  H    2.725889   2.748136   5.400225   1.765275   1.769412
    20  H    3.826282   3.883127   2.145017   2.221427   2.357832
    21  H    6.131780   6.262727   2.187847   4.544571   4.733202
    22  H    6.764824   6.952575   2.172185   5.810573   6.021410
    23  H    6.532209   6.095621   2.196343   5.385993   5.077435
    24  H    4.474639   5.632282   2.185163   3.585949   4.632486
    25  H    3.662262   4.940450   2.188837   3.986697   4.887021
    26  H    5.384296   6.408338   2.176089   5.135123   5.943042
    27  C    4.742446   3.615064   2.569449   3.858870   2.938307
    28  C    5.602714   4.344638   3.571700   4.091824   2.893054
    29  C    6.729207   5.066454   4.763228   5.344673   3.905090
    30  C    7.093264   5.160200   5.149066   6.213077   4.734191
    31  C    6.433584   4.557616   4.509034   6.061277   4.758977
    32  C    5.251002   3.747478   3.229463   4.996681   3.976478
    33  H    4.943440   4.935430   1.095264   4.894240   4.932305
    34  H    5.637024   4.733465   3.746659   3.636822   2.659345
    35  H    7.504728   5.863213   5.623257   5.842836   4.385133
    36  H    8.077161   6.005010   6.198257   7.208286   5.651904
    37  H    7.029647   5.066130   5.241426   6.975977   5.688867
    38  H    4.985959   3.700734   3.148966   5.265873   4.493529
    39  H    2.977604   1.985639   4.666773   4.753336   4.368589
                   11         12         13         14         15
    11  H    0.000000
    12  H    1.778983   0.000000
    13  H    1.770929   1.782668   0.000000
    14  O    2.630357   3.966769   3.183818   0.000000
    15  H    3.248462   3.811335   2.615274   2.033582   0.000000
    16  H    3.782014   4.326632   3.792864   2.100444   1.783658
    17  C    6.287981   5.790617   7.016414   6.633353   6.955717
    18  C    4.538046   3.911436   5.460972   5.789357   6.267149
    19  H    3.738609   3.042199   2.530599   4.035281   2.455239
    20  H    4.426178   3.669934   4.623545   4.862980   4.591419
    21  H    6.552302   5.775484   7.034811   7.049520   7.071747
    22  H    6.916702   6.435120   7.787366   7.424759   7.903351
    23  H    6.768765   6.440928   7.471989   6.692322   7.024265
    24  H    4.825593   3.798524   5.421098   6.237600   6.378041
    25  H    3.629312   3.171994   4.725943   5.160383   5.787427
    26  H    5.392197   4.837794   6.438348   6.684888   7.309941
    27  C    5.064845   5.022477   5.507964   4.386545   4.494269
    28  C    6.110747   5.836052   6.222648   5.356309   5.001646
    29  C    7.182539   7.085621   7.268415   5.989264   5.640382
    30  C    7.360457   7.588797   7.654480   5.792989   5.810623
    31  C    6.515955   6.981662   7.084083   4.904362   5.375670
    32  C    5.318718   5.715589   6.013103   4.116420   4.708668
    33  H    4.854463   4.910545   5.999745   5.113828   5.982667
    34  H    6.294981   5.711509   6.208756   5.896084   5.271015
    35  H    8.049474   7.821019   7.966659   6.885460   6.305167
    36  H    8.328798   8.617936   8.583567   6.578555   6.572203
    37  H    6.970299   7.654247   7.665852   5.138641   5.878104
    38  H    4.839075   5.479492   5.815851   3.711138   4.750827
    39  H    2.476487   3.877518   3.522440   0.980561   2.841227
                   16         17         18         19         20
    16  H    0.000000
    17  C    5.689962   0.000000
    18  C    5.532199   2.534478   0.000000
    19  H    3.161703   6.314153   5.556663   0.000000
    20  H    3.719459   2.757751   2.726227   3.568107   0.000000
    21  H    5.934725   1.098422   2.815575   6.060334   2.553785
    22  H    6.660640   1.095076   2.742152   7.281021   3.741928
    23  H    5.565524   1.094133   3.498314   6.598562   3.167643
    24  H    5.788192   2.803711   1.098606   5.241997   2.523886
    25  H    5.268394   3.493828   1.093323   5.281057   3.103643
    26  H    6.525647   2.755758   1.095304   6.646024   3.725872
    27  C    2.939491   2.994679   3.917117   4.494412   2.145122
    28  C    3.531323   3.503619   4.851452   4.651139   2.597589
    29  C    4.072200   4.543405   6.146813   5.621834   3.997354
    30  C    4.101595   5.075360   6.627493   6.338515   4.807817
    31  C    3.597064   4.735878   5.976509   6.222697   4.576945
    32  C    2.980159   3.751606   4.637744   5.367624   3.427882
    33  H    4.766129   2.161557   2.156200   5.992554   3.038883
    34  H    4.067721   3.541001   4.799131   4.388652   2.337305
    35  H    4.876402   5.231866   6.946659   6.072598   4.669371
    36  H    4.918261   6.039294   7.691978   7.217095   5.871922
    37  H    4.158247   5.530686   6.681107   7.036022   5.536246
    38  H    3.172623   3.973109   4.408090   5.644436   3.783224
    39  H    2.476785   6.042587   5.138731   4.478218   4.594268
                   21         22         23         24         25
    21  H    0.000000
    22  H    1.771811   0.000000
    23  H    1.775245   1.772588   0.000000
    24  H    2.638609   3.107426   3.824520   0.000000
    25  H    3.827984   3.743453   4.350549   1.780767   0.000000
    26  H    3.140100   2.508395   3.753899   1.772073   1.771445
    27  C    3.323675   4.011661   2.667786   4.211669   4.237402
    28  C    3.484613   4.562954   3.013818   4.891732   5.317937
    29  C    4.604580   5.516225   3.794645   6.255429   6.608558
    30  C    5.407676   5.948187   4.216547   6.946138   6.987210
    31  C    5.304076   5.534770   3.972338   6.485041   6.203367
    32  C    4.368536   4.586349   3.235880   5.185495   4.810127
    33  H    3.080608   2.516804   2.501865   3.075230   2.490981
    34  H    3.183887   4.605333   3.268882   4.595049   5.343747
    35  H    5.118977   6.184484   4.485272   6.930764   7.469610
    36  H    6.363994   6.860022   5.112119   8.014830   8.058373
    37  H    6.209479   6.218367   4.754585   7.299262   6.827813
    38  H    4.744429   4.654917   3.634792   5.134605   4.404080
    39  H    6.567540   6.746995   6.135798   5.719568   4.491697
                   26         27         28         29         30
    26  H    0.000000
    27  C    4.733301   0.000000
    28  C    5.656053   1.403860   0.000000
    29  C    6.884855   2.438451   1.402956   0.000000
    30  C    7.302381   2.818126   2.428718   1.402324   0.000000
    31  C    6.612778   2.434392   2.797646   2.426715   1.404611
    32  C    5.324566   1.406807   2.424350   2.805244   2.433028
    33  H    2.509408   2.811420   4.018353   5.023100   5.108810
    34  H    5.625966   2.159324   1.087357   2.159621   3.412326
    35  H    7.677491   3.419000   2.159992   1.085027   2.161094
    36  H    8.335044   3.903031   3.413103   2.161714   1.084909
    37  H    7.244426   3.415248   3.882565   3.410303   2.161333
    38  H    5.021569   2.158643   3.406788   3.890879   3.417857
    39  H    5.954192   4.079374   5.233280   5.940831   5.693551
                   31         32         33         34         35
    31  C    0.000000
    32  C    1.400552   0.000000
    33  H    4.221435   2.961040   0.000000
    34  H    3.884994   3.410074   4.440798   0.000000
    35  H    3.411854   3.890263   5.983135   2.484014   0.000000
    36  H    2.163642   3.415695   6.110854   4.309670   2.491944
    37  H    1.084932   2.155642   4.761623   4.969918   4.309647
    38  H    2.161920   1.085668   2.575864   4.305059   4.975893
    39  H    4.649092   3.711761   4.339439   5.822009   6.916037
                   36         37         38         39
    36  H    0.000000
    37  H    2.491297   0.000000
    38  H    4.314184   2.486507   0.000000
    39  H    6.534531   4.851060   3.101378   0.000000
 Stoichiometry    C14H22NO2(2)
 Framework group  C1[X(C14H22NO2)]
 Deg. of freedom   111
 Full point group                 C1      NOp   1
 Largest Abelian subgroup         C1      NOp   1
 Largest concise Abelian subgroup C1      NOp   1
                         Standard orientation:                         
 ---------------------------------------------------------------------
 Center     Atomic      Atomic             Coordinates (Angstroms)
 Number     Number       Type             X           Y           Z
 ---------------------------------------------------------------------
      1          8           0       -1.382021    0.357455   -1.505771
      2          7           0       -1.147223    0.341258   -0.200843
      3          6           0       -1.966537   -0.624238    0.605296
      4          6           0       -1.578919   -0.576619    2.091561
      5          6           0        0.110903    0.976829    0.267418
      6          6           0       -3.447688   -0.242839    0.426781
      7          6           0       -1.689685   -2.057908    0.064053
      8          6           0        0.342763    2.317341   -0.476872
      9          1           0       -1.729112    0.422746    2.512822
     10          1           0       -0.542352   -0.886981    2.259281
     11          1           0       -3.722248   -0.236530   -0.629189
     12          1           0       -3.635579    0.750540    0.848296
     13          1           0       -4.080882   -0.973132    0.940839
     14          8           0       -2.194600   -2.281081   -1.265495
     15          1           0       -2.203439   -2.778636    0.706260
     16          1           0       -0.607527   -2.250400    0.110050
     17          6           0        1.646155    2.973357    0.015462
     18          6           0       -0.855190    3.262992   -0.272574
     19          1           0       -2.228353   -1.265694    2.639802
     20          1           0       -0.026853    1.216229    1.326468
     21          1           0        1.603752    3.168067    1.095657
     22          1           0        1.794920    3.932713   -0.491191
     23          1           0        2.519197    2.344460   -0.183064
     24          1           0       -0.998457    3.483930    0.794007
     25          1           0       -1.777334    2.827423   -0.666637
     26          1           0       -0.679890    4.212526   -0.789630
     27          6           0        1.279211    0.003556    0.132664
     28          6           0        2.095687   -0.278657    1.239256
     29          6           0        3.183000   -1.157156    1.119771
     30          6           0        3.459166   -1.765388   -0.113233
     31          6           0        2.644893   -1.487166   -1.223406
     32          6           0        1.562388   -0.606715   -1.102846
     33          1           0        0.435603    2.095551   -1.545419
     34          1           0        1.886646    0.193799    2.196038
     35          1           0        3.807664   -1.366384    1.981921
     36          1           0        4.296376   -2.448737   -0.208845
     37          1           0        2.851962   -1.958266   -2.178532
     38          1           0        0.927741   -0.398838   -1.958816
     39          1           0       -1.965182   -1.508518   -1.824077
 ---------------------------------------------------------------------
 Rotational constants (GHZ):           0.5678666           0.4079618           0.3070370
 Leave Link  202 at Tue Jan  7 16:43:08 2025, MaxMem=  4026531840 cpu:               0.1 elap:               0.2
 (Enter /usr/local/intel/g16/l301.exe)
 Standard basis: def2TZVP (5D, 7F)
 Ernie: Thresh=  0.10000D-02 Tol=  0.10000D-05 Strict=F.
 There are   744 symmetry adapted cartesian basis functions of A   symmetry.
 There are   659 symmetry adapted basis functions of A   symmetry.
   659 basis functions,  1043 primitive gaussians,   744 cartesian basis functions
    65 alpha electrons       64 beta electrons
       nuclear repulsion energy      1317.3716124585 Hartrees.
 IExCor= 4336 DFT=T Ex+Corr=M062X ExCW=0 ScaHFX=  0.540000
 ScaDFX=  1.000000  1.000000  1.000000  1.000000 ScalE2=  1.000000  1.000000
 IRadAn=      5 IRanWt=     -1 IRanGd=            0 ICorTp=0 IEmpDi=  4
 NAtoms=   39 NActive=   39 NUniq=   39 SFac= 1.00D+00 NAtFMM=   60 NAOKFM=F Big=F
 Integral buffers will be    131072 words long.
 Raffenetti 2 integral format.
 Two-electron integral symmetry is turned on.
 Leave Link  301 at Tue Jan  7 16:43:09 2025, MaxMem=  4026531840 cpu:               1.4 elap:               0.3
 (Enter /usr/local/intel/g16/l302.exe)
 NPDir=0 NMtPBC=     1 NCelOv=     1 NCel=       1 NClECP=     1 NCelD=      1
         NCelK=      1 NCelE2=     1 NClLst=     1 CellRange=     0.0.
 One-electron integrals computed using PRISM.
 One-electron integral symmetry used in STVInt
   1 Symmetry operations used in ECPInt.
 ECPInt:  NShTT=   37950 NPrTT=  112068 LenC2=   35402 LenP2D=   77075.
 LDataN:  DoStor=T MaxTD1= 6 Len=  172
 NBasis=   659 RedAO= T EigKep=  7.92D-06  NBF=   659
 NBsUse=   659 1.00D-06 EigRej= -1.00D+00 NBFU=   659
 Precomputing XC quadrature grid using
 IXCGrd= 4 IRadAn=           5 IRanWt=          -1 IRanGd=           0 AccXCQ= 0.00D+00.
 Generated NRdTot=       0 NPtTot=           0 NUsed=           0 NTot=          32
 NSgBfM=   737   736   736   736   737 MxSgAt=    39 MxSgA2=    39.
 Leave Link  302 at Tue Jan  7 16:43:10 2025, MaxMem=  4026531840 cpu:              24.1 elap:               1.4
 (Enter /usr/local/intel/g16/l303.exe)
 DipDrv:  MaxL=1.
 Leave Link  303 at Tue Jan  7 16:43:11 2025, MaxMem=  4026531840 cpu:               3.3 elap:               0.2
 (Enter /usr/local/intel/g16/l401.exe)
 ExpMin= 9.52D-02 ExpMax= 2.70D+04 ExpMxC= 9.22D+02 IAcc=3 IRadAn=         5 AccDes= 0.00D+00
 Harris functional with IExCor= 1009 and IRadAn=       5 diagonalized for initial guess.
 HarFok:  IExCor= 1009 AccDes= 0.00D+00 IRadAn=         5 IDoV= 1 UseB2=F ITyADJ=14
 ICtDFT=  3500011 ScaDFX=  1.000000  1.000000  1.000000  1.000000
 FoFCou: FMM=F IPFlag=           0 FMFlag=      100000 FMFlg1=           0
         NFxFlg=           0 DoJE=T BraDBF=F KetDBF=T FulRan=T
         wScrn=  0.000000 ICntrl=       500 IOpCl=  0 I1Cent=   200000004 NGrid=           0
         NMat0=    1 NMatS0=      1 NMatT0=    0 NMatD0=    1 NMtDS0=    0 NMtDT0=    0
 Petite list used in FoFCou.
 Harris En= -751.532913264317    
 JPrj=0 DoOrth=F DoCkMO=F.
 Initial guess <Sx>= 0.0000 <Sy>= 0.0000 <Sz>= 0.5000 <S**2>= 0.7500 S= 0.5000
 Leave Link  401 at Tue Jan  7 16:43:14 2025, MaxMem=  4026531840 cpu:              73.6 elap:               3.7
 (Enter /usr/local/intel/g16/l502.exe)
 Integral symmetry usage will be decided dynamically.
 UHF open shell SCF:
 Using DIIS extrapolation, IDIIS=  1040.
 NGot=  4026531840 LenX=  4025402218 LenY=  4024847938
 Requested convergence on RMS density matrix=1.00D-08 within 128 cycles.
 Requested convergence on MAX density matrix=1.00D-06.
 Requested convergence on             energy=1.00D-06.
 No special actions if energy rises.
 Fock matrices will be formed incrementally for  20 cycles.
 Integral accuracy reduced to 1.0D-05 until final iterations.

 Cycle   1  Pass 0  IDiag  1:
 FoFJK:  IHMeth= 1 ICntrl=       0 DoSepK=F KAlg= 0 I1Cent=           0 FoldK=F
 IRaf= 880000000 NMat=       1 IRICut=       1 DoRegI=T DoRafI=F ISym2E= 0 IDoP0=0 IntGTp=1.
 FoFCou: FMM=F IPFlag=           0 FMFlag=      100000 FMFlg1=           0
         NFxFlg=           0 DoJE=F BraDBF=F KetDBF=F FulRan=T
         wScrn=  0.000000 ICntrl=         0 IOpCl=  1 I1Cent=           0 NGrid=           0
         NMat0=    1 NMatS0=      1 NMatT0=    0 NMatD0=    1 NMtDS0=    0 NMtDT0=    0
 Symmetry not used in FoFCou.
 E= -751.264069719846    
 DIIS: error= 1.94D-02 at cycle   1 NSaved=   1.
 NSaved= 1 IEnMin= 1 EnMin= -751.264069719846     IErMin= 1 ErrMin= 1.94D-02
 ErrMax= 1.94D-02  0.00D+00 EMaxC= 1.00D-01 BMatC= 2.65D+00 BMatP= 2.65D+00
 IDIUse=3 WtCom= 8.06D-01 WtEn= 1.94D-01
 Coeff-Com:  0.100D+01
 Coeff-En:   0.100D+01
 Coeff:      0.100D+01
 Gap=     0.397 Goal=   None    Shift=    0.000
 Gap=     0.214 Goal=   None    Shift=    0.000
 GapD=    0.214 DampG=1.000 DampE=0.500 DampFc=0.5000 IDamp=-1.
 Damping current iteration by 5.00D-01
 RMSDP=2.50D-03 MaxDP=1.63D-01              OVMax= 1.56D-01

 Cycle   2  Pass 0  IDiag  1:
 RMSU=  1.24D-03    CP:  9.80D-01
 E= -751.535552484147     Delta-E=       -0.271482764301 Rises=F Damp=T
 DIIS: error= 4.27D-03 at cycle   2 NSaved=   2.
 NSaved= 2 IEnMin= 2 EnMin= -751.535552484147     IErMin= 2 ErrMin= 4.27D-03
 ErrMax= 4.27D-03  0.00D+00 EMaxC= 1.00D-01 BMatC= 2.19D-01 BMatP= 2.65D+00
 IDIUse=3 WtCom= 9.57D-01 WtEn= 4.27D-02
 Coeff-Com: -0.426D-01 0.104D+01
 Coeff-En:   0.000D+00 0.100D+01
 Coeff:     -0.408D-01 0.104D+01
 Gap=     0.353 Goal=   None    Shift=    0.000
 Gap=     0.276 Goal=   None    Shift=    0.000
 RMSDP=1.06D-03 MaxDP=8.17D-02 DE=-2.71D-01 OVMax= 1.14D-01

 Cycle   3  Pass 0  IDiag  1:
 RMSU=  1.01D-03    CP:  9.60D-01  1.24D+00
 E= -751.794177694826     Delta-E=       -0.258625210678 Rises=F Damp=F
 DIIS: error= 4.77D-03 at cycle   3 NSaved=   3.
 NSaved= 3 IEnMin= 3 EnMin= -751.794177694826     IErMin= 2 ErrMin= 4.27D-03
 ErrMax= 4.77D-03  0.00D+00 EMaxC= 1.00D-01 BMatC= 1.37D-01 BMatP= 2.19D-01
 IDIUse=3 WtCom= 9.52D-01 WtEn= 4.77D-02
 Coeff-Com: -0.846D-01 0.481D+00 0.604D+00
 Coeff-En:   0.000D+00 0.000D+00 0.100D+01
 Coeff:     -0.805D-01 0.458D+00 0.623D+00
 Gap=     0.289 Goal=   None    Shift=    0.000
 Gap=     0.265 Goal=   None    Shift=    0.000
 RMSDP=3.64D-04 MaxDP=2.96D-02 DE=-2.59D-01 OVMax= 7.60D-02

 Cycle   4  Pass 0  IDiag  1:
 RMSU=  3.29D-04    CP:  9.65D-01  1.35D+00  9.25D-01
 E= -751.813584249321     Delta-E=       -0.019406554496 Rises=F Damp=F
 DIIS: error= 2.23D-03 at cycle   4 NSaved=   4.
 NSaved= 4 IEnMin= 4 EnMin= -751.813584249321     IErMin= 4 ErrMin= 2.23D-03
 ErrMax= 2.23D-03  0.00D+00 EMaxC= 1.00D-01 BMatC= 3.69D-02 BMatP= 1.37D-01
 IDIUse=3 WtCom= 9.78D-01 WtEn= 2.23D-02
 Coeff-Com: -0.328D-01 0.984D-01 0.369D+00 0.565D+00
 Coeff-En:   0.000D+00 0.000D+00 0.221D+00 0.779D+00
 Coeff:     -0.320D-01 0.962D-01 0.366D+00 0.570D+00
 Gap=     0.286 Goal=   None    Shift=    0.000
 Gap=     0.266 Goal=   None    Shift=    0.000
 RMSDP=1.74D-04 MaxDP=1.77D-02 DE=-1.94D-02 OVMax= 2.09D-02

 Cycle   5  Pass 0  IDiag  1:
 RMSU=  1.34D-04    CP:  9.61D-01  1.33D+00  9.55D-01  6.90D-01
 E= -751.820553974562     Delta-E=       -0.006969725241 Rises=F Damp=F
 DIIS: error= 3.95D-04 at cycle   5 NSaved=   5.
 NSaved= 5 IEnMin= 5 EnMin= -751.820553974562     IErMin= 5 ErrMin= 3.95D-04
 ErrMax= 3.95D-04  0.00D+00 EMaxC= 1.00D-01 BMatC= 1.06D-03 BMatP= 3.69D-02
 IDIUse=3 WtCom= 9.96D-01 WtEn= 3.95D-03
 Coeff-Com: -0.853D-02 0.148D-01 0.128D+00 0.237D+00 0.628D+00
 Coeff-En:   0.000D+00 0.000D+00 0.000D+00 0.000D+00 0.100D+01
 Coeff:     -0.849D-02 0.148D-01 0.128D+00 0.237D+00 0.629D+00
 Gap=     0.281 Goal=   None    Shift=    0.000
 Gap=     0.271 Goal=   None    Shift=    0.000
 RMSDP=4.29D-05 MaxDP=3.22D-03 DE=-6.97D-03 OVMax= 8.19D-03

 Cycle   6  Pass 0  IDiag  1:
 RMSU=  4.07D-05    CP:  9.61D-01  1.33D+00  9.65D-01  7.09D-01  9.54D-01
 E= -751.820794880742     Delta-E=       -0.000240906179 Rises=F Damp=F
 DIIS: error= 1.70D-04 at cycle   6 NSaved=   6.
 NSaved= 6 IEnMin= 6 EnMin= -751.820794880742     IErMin= 6 ErrMin= 1.70D-04
 ErrMax= 1.70D-04  0.00D+00 EMaxC= 1.00D-01 BMatC= 1.61D-04 BMatP= 1.06D-03
 IDIUse=3 WtCom= 9.98D-01 WtEn= 1.70D-03
 Coeff-Com:  0.197D-02-0.858D-02-0.833D-03-0.758D-03 0.241D+00 0.767D+00
 Coeff-En:   0.000D+00 0.000D+00 0.000D+00 0.000D+00 0.000D+00 0.100D+01
 Coeff:      0.197D-02-0.856D-02-0.832D-03-0.756D-03 0.241D+00 0.767D+00
 Gap=     0.283 Goal=   None    Shift=    0.000
 Gap=     0.270 Goal=   None    Shift=    0.000
 RMSDP=3.38D-05 MaxDP=1.93D-03 DE=-2.41D-04 OVMax= 3.74D-03

 Cycle   7  Pass 0  IDiag  1:
 RMSU=  2.43D-05    CP:  9.61D-01  1.34D+00  9.68D-01  7.24D-01  1.11D+00
                    CP:  1.18D+00
 E= -751.820849781018     Delta-E=       -0.000054900277 Rises=F Damp=F
 DIIS: error= 5.99D-05 at cycle   7 NSaved=   7.
 NSaved= 7 IEnMin= 7 EnMin= -751.820849781018     IErMin= 7 ErrMin= 5.99D-05
 ErrMax= 5.99D-05  0.00D+00 EMaxC= 1.00D-01 BMatC= 2.36D-05 BMatP= 1.61D-04
 IDIUse=1 WtCom= 1.00D+00 WtEn= 0.00D+00
 Coeff-Com:  0.224D-02-0.490D-02-0.210D-01-0.510D-01-0.602D-01 0.125D+00
 Coeff-Com:  0.101D+01
 Coeff:      0.224D-02-0.490D-02-0.210D-01-0.510D-01-0.602D-01 0.125D+00
 Coeff:      0.101D+01
 Gap=     0.284 Goal=   None    Shift=    0.000
 Gap=     0.271 Goal=   None    Shift=    0.000
 RMSDP=3.78D-05 MaxDP=2.14D-03 DE=-5.49D-05 OVMax= 2.71D-03

 Cycle   8  Pass 0  IDiag  1:
 RMSU=  1.78D-05    CP:  9.61D-01  1.34D+00  9.72D-01  7.37D-01  1.26D+00
                    CP:  1.57D+00  1.80D+00
 E= -751.820866127980     Delta-E=       -0.000016346962 Rises=F Damp=F
 DIIS: error= 4.17D-05 at cycle   8 NSaved=   8.
 NSaved= 8 IEnMin= 8 EnMin= -751.820866127980     IErMin= 8 ErrMin= 4.17D-05
 ErrMax= 4.17D-05  0.00D+00 EMaxC= 1.00D-01 BMatC= 7.50D-06 BMatP= 2.36D-05
 IDIUse=1 WtCom= 1.00D+00 WtEn= 0.00D+00
 Coeff-Com:  0.737D-03-0.942D-03-0.805D-02-0.248D-01-0.587D-01-0.676D-01
 Coeff-Com:  0.452D+00 0.707D+00
 Coeff:      0.737D-03-0.942D-03-0.805D-02-0.248D-01-0.587D-01-0.676D-01
 Coeff:      0.452D+00 0.707D+00
 Gap=     0.284 Goal=   None    Shift=    0.000
 Gap=     0.271 Goal=   None    Shift=    0.000
 RMSDP=2.53D-05 MaxDP=1.56D-03 DE=-1.63D-05 OVMax= 1.07D-03

 Cycle   9  Pass 0  IDiag  1:
 RMSU=  1.00D-05    CP:  9.61D-01  1.35D+00  9.74D-01  7.41D-01  1.31D+00
                    CP:  1.76D+00  2.42D+00  1.71D+00
 E= -751.820867685206     Delta-E=       -0.000001557226 Rises=F Damp=F
 DIIS: error= 1.66D-05 at cycle   9 NSaved=   9.
 NSaved= 9 IEnMin= 9 EnMin= -751.820867685206     IErMin= 9 ErrMin= 1.66D-05
 ErrMax= 1.66D-05  0.00D+00 EMaxC= 1.00D-01 BMatC= 1.56D-06 BMatP= 7.50D-06
 IDIUse=1 WtCom= 1.00D+00 WtEn= 0.00D+00
 Coeff-Com: -0.336D-03 0.924D-03 0.415D-02 0.549D-02 0.477D-02-0.553D-01
 Coeff-Com: -0.156D+00 0.208D+00 0.989D+00
 Coeff:     -0.336D-03 0.924D-03 0.415D-02 0.549D-02 0.477D-02-0.553D-01
 Coeff:     -0.156D+00 0.208D+00 0.989D+00
 Gap=     0.284 Goal=   None    Shift=    0.000
 Gap=     0.271 Goal=   None    Shift=    0.000
 RMSDP=3.76D-05 MaxDP=1.91D-03 DE=-1.56D-06 OVMax= 6.75D-04

 Cycle  10  Pass 0  IDiag  1:
 RMSU=  1.37D-05    CP:  9.61D-01  1.35D+00  9.79D-01  7.52D-01  1.36D+00
                    CP:  1.96D+00  3.00D+00  2.88D+00  2.47D+00
 E= -751.820867344039     Delta-E=        0.000000341167 Rises=F Damp=F
 DIIS: error= 1.49D-05 at cycle  10 NSaved=  10.
 NSaved=10 IEnMin= 9 EnMin= -751.820867685206     IErMin=10 ErrMin= 1.49D-05
 ErrMax= 1.49D-05  0.00D+00 EMaxC= 1.00D-01 BMatC= 4.90D-07 BMatP= 1.56D-06
 IDIUse=1 WtCom= 1.00D+00 WtEn= 0.00D+00
 Coeff-Com: -0.232D-03 0.504D-03 0.328D-02 0.573D-02 0.116D-01-0.183D-01
 Coeff-Com: -0.138D+00 0.588D-02 0.465D+00 0.664D+00
 Coeff:     -0.232D-03 0.504D-03 0.328D-02 0.573D-02 0.116D-01-0.183D-01
 Coeff:     -0.138D+00 0.588D-02 0.465D+00 0.664D+00
 Gap=     0.284 Goal=   None    Shift=    0.000
 Gap=     0.271 Goal=   None    Shift=    0.000
 RMSDP=3.21D-05 MaxDP=1.45D-03 DE= 3.41D-07 OVMax= 2.16D-04

 Cycle  11  Pass 0  IDiag  1:
 RMSU=  1.97D-05    CP:  9.61D-01  1.36D+00  9.82D-01  7.58D-01  1.39D+00
                    CP:  2.12D+00  3.00D+00  3.00D+00  3.00D+00  2.32D+00
 E= -751.820868062950     Delta-E=       -0.000000718911 Rises=F Damp=F
 DIIS: error= 1.70D-05 at cycle  11 NSaved=  11.
 NSaved=11 IEnMin=11 EnMin= -751.820868062950     IErMin=10 ErrMin= 1.49D-05
 ErrMax= 1.70D-05  0.00D+00 EMaxC= 1.00D-01 BMatC= 2.99D-07 BMatP= 4.90D-07
 IDIUse=1 WtCom= 1.00D+00 WtEn= 0.00D+00
 Coeff-Com: -0.941D-04 0.191D-03 0.160D-02 0.270D-02 0.662D-02-0.660D-02
 Coeff-Com: -0.667D-01-0.114D-01 0.180D+00 0.394D+00 0.499D+00
 Coeff:     -0.941D-04 0.191D-03 0.160D-02 0.270D-02 0.662D-02-0.660D-02
 Coeff:     -0.667D-01-0.114D-01 0.180D+00 0.394D+00 0.499D+00
 Gap=     0.284 Goal=   None    Shift=    0.000
 Gap=     0.271 Goal=   None    Shift=    0.000
 RMSDP=2.68D-05 MaxDP=1.23D-03 DE=-7.19D-07 OVMax= 8.18D-05

 Cycle  12  Pass 0  IDiag  1:
 RMSU=  7.48D-06    CP:  9.61D-01  1.36D+00  9.85D-01  7.64D-01  1.41D+00
                    CP:  2.23D+00  3.00D+00  3.00D+00  3.00D+00  3.00D+00
                    CP:  2.03D+00
 E= -751.820870422087     Delta-E=       -0.000002359137 Rises=F Damp=F
 DIIS: error= 2.02D-05 at cycle  12 NSaved=  12.
 NSaved=12 IEnMin=12 EnMin= -751.820870422087     IErMin=10 ErrMin= 1.49D-05
 ErrMax= 2.02D-05  0.00D+00 EMaxC= 1.00D-01 BMatC= 3.53D-07 BMatP= 2.99D-07
 IDIUse=1 WtCom= 1.00D+00 WtEn= 0.00D+00
 Coeff-Com: -0.578D-04 0.709D-04 0.140D-02 0.261D-02 0.832D-02 0.143D-02
 Coeff-Com: -0.633D-01-0.585D-01 0.511D-01 0.579D+00 0.182D+01-0.135D+01
 Coeff:     -0.578D-04 0.709D-04 0.140D-02 0.261D-02 0.832D-02 0.143D-02
 Coeff:     -0.633D-01-0.585D-01 0.511D-01 0.579D+00 0.182D+01-0.135D+01
 Gap=     0.284 Goal=   None    Shift=    0.000
 Gap=     0.271 Goal=   None    Shift=    0.000
 RMSDP=4.30D-05 MaxDP=3.01D-03 DE=-2.36D-06 OVMax= 3.41D-05

 Cycle  13  Pass 0  IDiag  1:
 RMSU=  9.13D-06    CP:  9.61D-01  1.36D+00  9.82D-01  7.56D-01  1.39D+00
                    CP:  2.05D+00  3.00D+00  3.00D+00  3.00D+00  2.17D+00
                    CP:  2.86D-01 -6.17D-01
 E= -751.820865807777     Delta-E=        0.000004614310 Rises=F Damp=F
 DIIS: error= 1.51D-05 at cycle  13 NSaved=  13.
 NSaved=13 IEnMin=12 EnMin= -751.820870422087     IErMin=10 ErrMin= 1.49D-05
 ErrMax= 1.51D-05  0.00D+00 EMaxC= 1.00D-01 BMatC= 2.12D-07 BMatP= 2.99D-07
 IDIUse=1 WtCom= 1.00D+00 WtEn= 0.00D+00
 Coeff-Com:  0.512D-04-0.140D-03-0.738D-04-0.205D-03 0.249D-02 0.847D-02
 Coeff-Com:  0.643D-02-0.471D-01-0.168D+00 0.182D+00 0.159D+01-0.214D+01
 Coeff-Com:  0.156D+01
 Coeff:      0.512D-04-0.140D-03-0.738D-04-0.205D-03 0.249D-02 0.847D-02
 Coeff:      0.643D-02-0.471D-01-0.168D+00 0.182D+00 0.159D+01-0.214D+01
 Coeff:      0.156D+01
 Gap=     0.284 Goal=   None    Shift=    0.000
 Gap=     0.271 Goal=   None    Shift=    0.000
 RMSDP=4.21D-05 MaxDP=3.77D-03 DE= 4.61D-06 OVMax= 7.13D-05

 Cycle  14  Pass 0  IDiag  1:
 RMSU=  8.87D-06    CP:  9.61D-01  1.35D+00  9.78D-01  7.45D-01  1.35D+00
                    CP:  1.87D+00  2.56D+00  1.85D+00  1.68D+00  1.94D+00
                    CP: -1.01D-01 -1.49D+00  2.39D+00
 E= -751.820865875836     Delta-E=       -0.000000068059 Rises=F Damp=F
 DIIS: error= 1.10D-05 at cycle  14 NSaved=  14.
 NSaved=14 IEnMin=12 EnMin= -751.820870422087     IErMin=14 ErrMin= 1.10D-05
 ErrMax= 1.10D-05  0.00D+00 EMaxC= 1.00D-01 BMatC= 1.61D-07 BMatP= 2.12D-07
 IDIUse=1 WtCom= 1.00D+00 WtEn= 0.00D+00
 Coeff-Com:  0.128D-04-0.534D-04 0.264D-03 0.450D-03 0.307D-02 0.471D-02
 Coeff-Com: -0.963D-02-0.369D-01-0.850D-01 0.193D+00 0.117D+01-0.163D+01
 Coeff-Com:  0.987D+00 0.402D+00
 Coeff:      0.128D-04-0.534D-04 0.264D-03 0.450D-03 0.307D-02 0.471D-02
 Coeff:     -0.963D-02-0.369D-01-0.850D-01 0.193D+00 0.117D+01-0.163D+01
 Coeff:      0.987D+00 0.402D+00
 Gap=     0.284 Goal=   None    Shift=    0.000
 Gap=     0.271 Goal=   None    Shift=    0.000
 RMSDP=9.03D-06 MaxDP=4.73D-04 DE=-6.81D-08 OVMax= 2.26D-05

 Initial convergence to 1.0D-05 achieved.  Increase integral accuracy.
 Cycle  15  Pass 1  IDiag  1:
 E= -751.820886741664     Delta-E=       -0.000020865828 Rises=F Damp=F
 DIIS: error= 3.00D-04 at cycle   1 NSaved=   1.
 NSaved= 1 IEnMin= 1 EnMin= -751.820886741664     IErMin= 1 ErrMin= 3.00D-04
 ErrMax= 3.00D-04  0.00D+00 EMaxC= 1.00D-01 BMatC= 1.18D-04 BMatP= 1.18D-04
 IDIUse=3 WtCom= 9.97D-01 WtEn= 3.00D-03
 Coeff-Com:  0.100D+01
 Coeff-En:   0.100D+01
 Coeff:      0.100D+01
 Gap=     0.284 Goal=   None    Shift=    0.000
 Gap=     0.271 Goal=   None    Shift=    0.000
 RMSDP=9.03D-06 MaxDP=4.73D-04 DE=-2.09D-05 OVMax= 7.00D-04

 Cycle  16  Pass 1  IDiag  1:
 RMSU=  8.08D-04    CP:  9.79D-01
 E= -751.820904094679     Delta-E=       -0.000017353014 Rises=F Damp=F
 DIIS: error= 8.36D-06 at cycle   2 NSaved=   2.
 NSaved= 2 IEnMin= 2 EnMin= -751.820904094679     IErMin= 2 ErrMin= 8.36D-06
 ErrMax= 8.36D-06  0.00D+00 EMaxC= 1.00D-01 BMatC= 8.91D-08 BMatP= 1.18D-04
 IDIUse=1 WtCom= 1.00D+00 WtEn= 0.00D+00
 Coeff-Com: -0.163D-01 0.102D+01
 Coeff:     -0.163D-01 0.102D+01
 Gap=     0.284 Goal=   None    Shift=    0.000
 Gap=     0.271 Goal=   None    Shift=    0.000
 RMSDP=2.55D-05 MaxDP=1.08D-03 DE=-1.74D-05 OVMax= 7.14D-05

 Cycle  17  Pass 1  IDiag  1:
 RMSU=  1.21D-05    CP:  9.78D-01  1.03D+00
 E= -751.820904120611     Delta-E=       -0.000000025932 Rises=F Damp=F
 DIIS: error= 2.80D-06 at cycle   3 NSaved=   3.
 NSaved= 3 IEnMin= 3 EnMin= -751.820904120611     IErMin= 3 ErrMin= 2.80D-06
 ErrMax= 2.80D-06  0.00D+00 EMaxC= 1.00D-01 BMatC= 4.78D-08 BMatP= 8.91D-08
 IDIUse=1 WtCom= 1.00D+00 WtEn= 0.00D+00
 Coeff-Com: -0.793D-02 0.470D+00 0.538D+00
 Coeff:     -0.793D-02 0.470D+00 0.538D+00
 Gap=     0.284 Goal=   None    Shift=    0.000
 Gap=     0.271 Goal=   None    Shift=    0.000
 RMSDP=5.03D-07 MaxDP=2.32D-05 DE=-2.59D-08 OVMax= 3.04D-05

 Cycle  18  Pass 1  IDiag  1:
 RMSU=  2.90D-07    CP:  9.78D-01  1.03D+00  1.02D+00
 E= -751.820904129255     Delta-E=       -0.000000008644 Rises=F Damp=F
 DIIS: error= 1.51D-06 at cycle   4 NSaved=   4.
 NSaved= 4 IEnMin= 4 EnMin= -751.820904129255     IErMin= 4 ErrMin= 1.51D-06
 ErrMax= 1.51D-06  0.00D+00 EMaxC= 1.00D-01 BMatC= 9.24D-09 BMatP= 4.78D-08
 IDIUse=1 WtCom= 1.00D+00 WtEn= 0.00D+00
 Coeff-Com:  0.379D-03-0.365D-01 0.278D+00 0.758D+00
 Coeff:      0.379D-03-0.365D-01 0.278D+00 0.758D+00
 Gap=     0.284 Goal=   None    Shift=    0.000
 Gap=     0.271 Goal=   None    Shift=    0.000
 RMSDP=4.36D-07 MaxDP=2.53D-05 DE=-8.64D-09 OVMax= 3.65D-05

 Cycle  19  Pass 1  IDiag  1:
 RMSU=  1.82D-07    CP:  9.78D-01  1.03D+00  1.04D+00  1.32D+00
 E= -751.820904132435     Delta-E=       -0.000000003181 Rises=F Damp=F
 DIIS: error= 5.13D-07 at cycle   5 NSaved=   5.
 NSaved= 5 IEnMin= 5 EnMin= -751.820904132435     IErMin= 5 ErrMin= 5.13D-07
 ErrMax= 5.13D-07  0.00D+00 EMaxC= 1.00D-01 BMatC= 1.71D-09 BMatP= 9.24D-09
 IDIUse=1 WtCom= 1.00D+00 WtEn= 0.00D+00
 Coeff-Com:  0.101D-02-0.658D-01 0.356D-01 0.336D+00 0.693D+00
 Coeff:      0.101D-02-0.658D-01 0.356D-01 0.336D+00 0.693D+00
 Gap=     0.284 Goal=   None    Shift=    0.000
 Gap=     0.271 Goal=   None    Shift=    0.000
 RMSDP=9.88D-08 MaxDP=6.81D-06 DE=-3.18D-09 OVMax= 2.00D-05

 Cycle  20  Pass 1  IDiag  1:
 RMSU=  5.65D-08    CP:  9.78D-01  1.03D+00  1.04D+00  1.48D+00  1.28D+00
 E= -751.820904133373     Delta-E=       -0.000000000938 Rises=F Damp=F
 DIIS: error= 2.88D-07 at cycle   6 NSaved=   6.
 NSaved= 6 IEnMin= 6 EnMin= -751.820904133373     IErMin= 6 ErrMin= 2.88D-07
 ErrMax= 2.88D-07  0.00D+00 EMaxC= 1.00D-01 BMatC= 3.80D-10 BMatP= 1.71D-09
 IDIUse=1 WtCom= 1.00D+00 WtEn= 0.00D+00
 Coeff-Com: -0.621D-04 0.894D-02-0.133D+00-0.237D+00-0.208D-01 0.138D+01
 Coeff:     -0.621D-04 0.894D-02-0.133D+00-0.237D+00-0.208D-01 0.138D+01
 Gap=     0.284 Goal=   None    Shift=    0.000
 Gap=     0.271 Goal=   None    Shift=    0.000
 RMSDP=1.15D-07 MaxDP=9.12D-06 DE=-9.38D-10 OVMax= 3.40D-05

 Cycle  21  Pass 1  IDiag  1:
 RMSU=  4.99D-08    CP:  9.78D-01  1.03D+00  1.04D+00  1.63D+00  1.58D+00
                    CP:  2.20D+00
 E= -751.820904134044     Delta-E=       -0.000000000671 Rises=F Damp=F
 DIIS: error= 2.73D-07 at cycle   7 NSaved=   7.
 NSaved= 7 IEnMin= 7 EnMin= -751.820904134044     IErMin= 7 ErrMin= 2.73D-07
 ErrMax= 2.73D-07  0.00D+00 EMaxC= 1.00D-01 BMatC= 1.37D-10 BMatP= 3.80D-10
 IDIUse=1 WtCom= 1.00D+00 WtEn= 0.00D+00
 Coeff-Com: -0.243D-03 0.181D-01-0.760D-01-0.176D+00-0.172D+00 0.684D+00
 Coeff-Com:  0.722D+00
 Coeff:     -0.243D-03 0.181D-01-0.760D-01-0.176D+00-0.172D+00 0.684D+00
 Coeff:      0.722D+00
 Gap=     0.284 Goal=   None    Shift=    0.000
 Gap=     0.271 Goal=   None    Shift=    0.000
 RMSDP=3.61D-08 MaxDP=3.38D-06 DE=-6.71D-10 OVMax= 1.32D-05

 Cycle  22  Pass 1  IDiag  1:
 RMSU=  1.65D-08    CP:  9.78D-01  1.03D+00  1.04D+00  1.67D+00  1.63D+00
                    CP:  2.62D+00  1.25D+00
 E= -751.820904134194     Delta-E=       -0.000000000150 Rises=F Damp=F
 DIIS: error= 1.07D-07 at cycle   8 NSaved=   8.
 NSaved= 8 IEnMin= 8 EnMin= -751.820904134194     IErMin= 8 ErrMin= 1.07D-07
 ErrMax= 1.07D-07  0.00D+00 EMaxC= 1.00D-01 BMatC= 2.66D-11 BMatP= 1.37D-10
 IDIUse=1 WtCom= 1.00D+00 WtEn= 0.00D+00
 Coeff-Com: -0.687D-04 0.373D-02 0.155D-01 0.160D-01-0.556D-01-0.197D+00
 Coeff-Com:  0.234D+00 0.983D+00
 Coeff:     -0.687D-04 0.373D-02 0.155D-01 0.160D-01-0.556D-01-0.197D+00
 Coeff:      0.234D+00 0.983D+00
 Gap=     0.284 Goal=   None    Shift=    0.000
 Gap=     0.271 Goal=   None    Shift=    0.000
 RMSDP=2.03D-08 MaxDP=2.08D-06 DE=-1.50D-10 OVMax= 8.57D-06

 Cycle  23  Pass 1  IDiag  1:
 RMSU=  1.22D-08    CP:  9.78D-01  1.03D+00  1.04D+00  1.67D+00  1.63D+00
                    CP:  2.75D+00  1.44D+00  1.63D+00
 E= -751.820904134220     Delta-E=       -0.000000000026 Rises=F Damp=F
 DIIS: error= 4.32D-08 at cycle   9 NSaved=   9.
 NSaved= 9 IEnMin= 9 EnMin= -751.820904134220     IErMin= 9 ErrMin= 4.32D-08
 ErrMax= 4.32D-08  0.00D+00 EMaxC= 1.00D-01 BMatC= 6.34D-12 BMatP= 2.66D-11
 IDIUse=1 WtCom= 1.00D+00 WtEn= 0.00D+00
 Coeff-Com:  0.418D-04-0.357D-02 0.255D-01 0.493D-01 0.283D-01-0.242D+00
 Coeff-Com: -0.108D+00 0.305D+00 0.946D+00
 Coeff:      0.418D-04-0.357D-02 0.255D-01 0.493D-01 0.283D-01-0.242D+00
 Coeff:     -0.108D+00 0.305D+00 0.946D+00
 Gap=     0.284 Goal=   None    Shift=    0.000
 Gap=     0.271 Goal=   None    Shift=    0.000
 RMSDP=1.24D-08 MaxDP=1.05D-06 DE=-2.59D-11 OVMax= 4.12D-06

 Cycle  24  Pass 1  IDiag  1:
 RMSU=  5.29D-09    CP:  9.78D-01  1.03D+00  1.04D+00  1.66D+00  1.62D+00
                    CP:  2.78D+00  1.48D+00  2.06D+00  1.56D+00
 E= -751.820904134225     Delta-E=       -0.000000000005 Rises=F Damp=F
 DIIS: error= 1.99D-08 at cycle  10 NSaved=  10.
 NSaved=10 IEnMin=10 EnMin= -751.820904134225     IErMin=10 ErrMin= 1.99D-08
 ErrMax= 1.99D-08  0.00D+00 EMaxC= 1.00D-01 BMatC= 1.89D-12 BMatP= 6.34D-12
 IDIUse=1 WtCom= 1.00D+00 WtEn= 0.00D+00
 Coeff-Com:  0.303D-04-0.212D-02 0.679D-02 0.128D-01 0.252D-01-0.467D-01
 Coeff-Com: -0.902D-01-0.112D+00 0.344D+00 0.862D+00
 Coeff:      0.303D-04-0.212D-02 0.679D-02 0.128D-01 0.252D-01-0.467D-01
 Coeff:     -0.902D-01-0.112D+00 0.344D+00 0.862D+00
 Gap=     0.284 Goal=   None    Shift=    0.000
 Gap=     0.271 Goal=   None    Shift=    0.000
 RMSDP=5.32D-09 MaxDP=4.80D-07 DE=-5.00D-12 OVMax= 1.62D-06

 SCF Done:  E(UM062X) =  -751.820904134     A.U. after   24 cycles
            NFock= 24  Conv=0.53D-08     -V/T= 2.0059
 <Sx>= 0.0000 <Sy>= 0.0000 <Sz>= 0.5000 <S**2>= 0.7559 S= 0.5029
 <L.S>=  0.00000000000    
 KE= 7.473773467499D+02 PE=-4.383517687053D+03 EE= 1.566947823710D+03
 Annihilation of the first spin contaminant:
 S**2 before annihilation     0.7559,   after     0.7500
 Leave Link  502 at Tue Jan  7 16:58:09 2025, MaxMem=  4026531840 cpu:           17891.8 elap:             894.9
 (Enter /usr/local/intel/g16/l601.exe)
 Copying SCF densities to generalized density rwf, IOpCl= 1 IROHF=0.

 **********************************************************************

            Population analysis using the SCF Density.

 **********************************************************************

 Orbital symmetries:
 Alpha Orbitals:
       Occupied  (A) (A) (A) (A) (A) (A) (A) (A) (A) (A) (A) (A)
                 (A) (A) (A) (A) (A) (A) (A) (A) (A) (A) (A) (A)
                 (A) (A) (A) (A) (A) (A) (A) (A) (A) (A) (A) (A)
                 (A) (A) (A) (A) (A) (A) (A) (A) (A) (A) (A) (A)
                 (A) (A) (A) (A) (A) (A) (A) (A) (A) (A) (A) (A)
                 (A) (A) (A) (A) (A)
       Virtual   (A) (A) (A) (A) (A) (A) (A) (A) (A) (A) (A) (A)
                 (A) (A) (A) (A) (A) (A) (A) (A) (A) (A) (A) (A)
                 (A) (A) (A) (A) (A) (A) (A) (A) (A) (A) (A) (A)
                 (A) (A) (A) (A) (A) (A) (A) (A) (A) (A) (A) (A)
                 (A) (A) (A) (A) (A) (A) (A) (A) (A) (A) (A) (A)
                 (A) (A) (A) (A) (A) (A) (A) (A) (A) (A) (A) (A)
                 (A) (A) (A) (A) (A) (A) (A) (A) (A) (A) (A) (A)
                 (A) (A) (A) (A) (A) (A) (A) (A) (A) (A) (A) (A)
                 (A) (A) (A) (A) (A) (A) (A) (A) (A) (A) (A) (A)
                 (A) (A) (A) (A) (A) (A) (A) (A) (A) (A) (A) (A)
                 (A) (A) (A) (A) (A) (A) (A) (A) (A) (A) (A) (A)
                 (A) (A) (A) (A) (A) (A) (A) (A) (A) (A) (A) (A)
                 (A) (A) (A) (A) (A) (A) (A) (A) (A) (A) (A) (A)
                 (A) (A) (A) (A) (A) (A) (A) (A) (A) (A) (A) (A)
                 (A) (A) (A) (A) (A) (A) (A) (A) (A) (A) (A) (A)
                 (A) (A) (A) (A) (A) (A) (A) (A) (A) (A) (A) (A)
                 (A) (A) (A) (A) (A) (A) (A) (A) (A) (A) (A) (A)
                 (A) (A) (A) (A) (A) (A) (A) (A) (A) (A) (A) (A)
                 (A) (A) (A) (A) (A) (A) (A) (A) (A) (A) (A) (A)
                 (A) (A) (A) (A) (A) (A) (A) (A) (A) (A) (A) (A)
                 (A) (A) (A) (A) (A) (A) (A) (A) (A) (A) (A) (A)
                 (A) (A) (A) (A) (A) (A) (A) (A) (A) (A) (A) (A)
                 (A) (A) (A) (A) (A) (A) (A) (A) (A) (A) (A) (A)
                 (A) (A) (A) (A) (A) (A) (A) (A) (A) (A) (A) (A)
                 (A) (A) (A) (A) (A) (A) (A) (A) (A) (A) (A) (A)
                 (A) (A) (A) (A) (A) (A) (A) (A) (A) (A) (A) (A)
                 (A) (A) (A) (A) (A) (A) (A) (A) (A) (A) (A) (A)
                 (A) (A) (A) (A) (A) (A) (A) (A) (A) (A) (A) (A)
                 (A) (A) (A) (A) (A) (A) (A) (A) (A) (A) (A) (A)
                 (A) (A) (A) (A) (A) (A) (A) (A) (A) (A) (A) (A)
                 (A) (A) (A) (A) (A) (A) (A) (A) (A) (A) (A) (A)
                 (A) (A) (A) (A) (A) (A) (A) (A) (A) (A) (A) (A)
                 (A) (A) (A) (A) (A) (A) (A) (A) (A) (A) (A) (A)
                 (A) (A) (A) (A) (A) (A) (A) (A) (A) (A) (A) (A)
                 (A) (A) (A) (A) (A) (A) (A) (A) (A) (A) (A) (A)
                 (A) (A) (A) (A) (A) (A) (A) (A) (A) (A) (A) (A)
                 (A) (A) (A) (A) (A) (A) (A) (A) (A) (A) (A) (A)
                 (A) (A) (A) (A) (A) (A) (A) (A) (A) (A) (A) (A)
                 (A) (A) (A) (A) (A) (A) (A) (A) (A) (A) (A) (A)
                 (A) (A) (A) (A) (A) (A) (A) (A) (A) (A) (A) (A)
                 (A) (A) (A) (A) (A) (A) (A) (A) (A) (A) (A) (A)
                 (A) (A) (A) (A) (A) (A) (A) (A) (A) (A) (A) (A)
                 (A) (A) (A) (A) (A) (A) (A) (A) (A) (A) (A) (A)
                 (A) (A) (A) (A) (A) (A) (A) (A) (A) (A) (A) (A)
                 (A) (A) (A) (A) (A) (A) (A) (A) (A) (A) (A) (A)
                 (A) (A) (A) (A) (A) (A) (A) (A) (A) (A) (A) (A)
                 (A) (A) (A) (A) (A) (A) (A) (A) (A) (A) (A) (A)
                 (A) (A) (A) (A) (A) (A) (A) (A) (A) (A) (A) (A)
                 (A) (A) (A) (A) (A) (A) (A) (A) (A) (A) (A) (A)
                 (A) (A) (A) (A) (A) (A)
 Beta  Orbitals:
       Occupied  (A) (A) (A) (A) (A) (A) (A) (A) (A) (A) (A) (A)
                 (A) (A) (A) (A) (A) (A) (A) (A) (A) (A) (A) (A)
                 (A) (A) (A) (A) (A) (A) (A) (A) (A) (A) (A) (A)
                 (A) (A) (A) (A) (A) (A) (A) (A) (A) (A) (A) (A)
                 (A) (A) (A) (A) (A) (A) (A) (A) (A) (A) (A) (A)
                 (A) (A) (A) (A)
       Virtual   (A) (A) (A) (A) (A) (A) (A) (A) (A) (A) (A) (A)
                 (A) (A) (A) (A) (A) (A) (A) (A) (A) (A) (A) (A)
                 (A) (A) (A) (A) (A) (A) (A) (A) (A) (A) (A) (A)
                 (A) (A) (A) (A) (A) (A) (A) (A) (A) (A) (A) (A)
                 (A) (A) (A) (A) (A) (A) (A) (A) (A) (A) (A) (A)
                 (A) (A) (A) (A) (A) (A) (A) (A) (A) (A) (A) (A)
                 (A) (A) (A) (A) (A) (A) (A) (A) (A) (A) (A) (A)
                 (A) (A) (A) (A) (A) (A) (A) (A) (A) (A) (A) (A)
                 (A) (A) (A) (A) (A) (A) (A) (A) (A) (A) (A) (A)
                 (A) (A) (A) (A) (A) (A) (A) (A) (A) (A) (A) (A)
                 (A) (A) (A) (A) (A) (A) (A) (A) (A) (A) (A) (A)
                 (A) (A) (A) (A) (A) (A) (A) (A) (A) (A) (A) (A)
                 (A) (A) (A) (A) (A) (A) (A) (A) (A) (A) (A) (A)
                 (A) (A) (A) (A) (A) (A) (A) (A) (A) (A) (A) (A)
                 (A) (A) (A) (A) (A) (A) (A) (A) (A) (A) (A) (A)
                 (A) (A) (A) (A) (A) (A) (A) (A) (A) (A) (A) (A)
                 (A) (A) (A) (A) (A) (A) (A) (A) (A) (A) (A) (A)
                 (A) (A) (A) (A) (A) (A) (A) (A) (A) (A) (A) (A)
                 (A) (A) (A) (A) (A) (A) (A) (A) (A) (A) (A) (A)
                 (A) (A) (A) (A) (A) (A) (A) (A) (A) (A) (A) (A)
                 (A) (A) (A) (A) (A) (A) (A) (A) (A) (A) (A) (A)
                 (A) (A) (A) (A) (A) (A) (A) (A) (A) (A) (A) (A)
                 (A) (A) (A) (A) (A) (A) (A) (A) (A) (A) (A) (A)
                 (A) (A) (A) (A) (A) (A) (A) (A) (A) (A) (A) (A)
                 (A) (A) (A) (A) (A) (A) (A) (A) (A) (A) (A) (A)
                 (A) (A) (A) (A) (A) (A) (A) (A) (A) (A) (A) (A)
                 (A) (A) (A) (A) (A) (A) (A) (A) (A) (A) (A) (A)
                 (A) (A) (A) (A) (A) (A) (A) (A) (A) (A) (A) (A)
                 (A) (A) (A) (A) (A) (A) (A) (A) (A) (A) (A) (A)
                 (A) (A) (A) (A) (A) (A) (A) (A) (A) (A) (A) (A)
                 (A) (A) (A) (A) (A) (A) (A) (A) (A) (A) (A) (A)
                 (A) (A) (A) (A) (A) (A) (A) (A) (A) (A) (A) (A)
                 (A) (A) (A) (A) (A) (A) (A) (A) (A) (A) (A) (A)
                 (A) (A) (A) (A) (A) (A) (A) (A) (A) (A) (A) (A)
                 (A) (A) (A) (A) (A) (A) (A) (A) (A) (A) (A) (A)
                 (A) (A) (A) (A) (A) (A) (A) (A) (A) (A) (A) (A)
                 (A) (A) (A) (A) (A) (A) (A) (A) (A) (A) (A) (A)
                 (A) (A) (A) (A) (A) (A) (A) (A) (A) (A) (A) (A)
                 (A) (A) (A) (A) (A) (A) (A) (A) (A) (A) (A) (A)
                 (A) (A) (A) (A) (A) (A) (A) (A) (A) (A) (A) (A)
                 (A) (A) (A) (A) (A) (A) (A) (A) (A) (A) (A) (A)
                 (A) (A) (A) (A) (A) (A) (A) (A) (A) (A) (A) (A)
                 (A) (A) (A) (A) (A) (A) (A) (A) (A) (A) (A) (A)
                 (A) (A) (A) (A) (A) (A) (A) (A) (A) (A) (A) (A)
                 (A) (A) (A) (A) (A) (A) (A) (A) (A) (A) (A) (A)
                 (A) (A) (A) (A) (A) (A) (A) (A) (A) (A) (A) (A)
                 (A) (A) (A) (A) (A) (A) (A) (A) (A) (A) (A) (A)
                 (A) (A) (A) (A) (A) (A) (A) (A) (A) (A) (A) (A)
                 (A) (A) (A) (A) (A) (A) (A) (A) (A) (A) (A) (A)
                 (A) (A) (A) (A) (A) (A) (A)
 The electronic state is 2-A.
 Alpha  occ. eigenvalues --  -19.64150 -19.60531 -14.85063 -10.59915 -10.59496
 Alpha  occ. eigenvalues --  -10.58387 -10.56274 -10.55499 -10.55395 -10.55242
 Alpha  occ. eigenvalues --  -10.55169 -10.55034 -10.54902 -10.54712 -10.52988
 Alpha  occ. eigenvalues --  -10.52908 -10.52591  -1.20885  -1.11686  -0.98295
 Alpha  occ. eigenvalues --   -0.95823  -0.92364  -0.86719  -0.84866  -0.84371
 Alpha  occ. eigenvalues --   -0.79413  -0.77717  -0.77361  -0.75501  -0.70011
 Alpha  occ. eigenvalues --   -0.68596  -0.66063  -0.63853  -0.60288  -0.58748
 Alpha  occ. eigenvalues --   -0.57137  -0.56267  -0.54819  -0.53091  -0.52591
 Alpha  occ. eigenvalues --   -0.51778  -0.51232  -0.49776  -0.49318  -0.48962
 Alpha  occ. eigenvalues --   -0.47671  -0.47043  -0.46458  -0.45976  -0.45212
 Alpha  occ. eigenvalues --   -0.44831  -0.44185  -0.43432  -0.42403  -0.41838
 Alpha  occ. eigenvalues --   -0.40986  -0.40079  -0.39694  -0.39382  -0.39095
 Alpha  occ. eigenvalues --   -0.34986  -0.34005  -0.31531  -0.30955  -0.27644
 Alpha virt. eigenvalues --    0.00718   0.01033   0.04772   0.07291   0.07981
 Alpha virt. eigenvalues --    0.08184   0.09380   0.10236   0.10433   0.11034
 Alpha virt. eigenvalues --    0.11727   0.12317   0.12925   0.12976   0.13768
 Alpha virt. eigenvalues --    0.14053   0.14958   0.15242   0.15623   0.16287
 Alpha virt. eigenvalues --    0.16872   0.16998   0.17378   0.17777   0.18143
 Alpha virt. eigenvalues --    0.18816   0.19066   0.19283   0.19747   0.20138
[...]
 4,0.00000575,0.00001003,-0.00001334,-0.00001837,0.00000568,-0.00003772
 ,0.00014286,0.00008393,-0.00009195,0.00000608,-0.00000346,0.00000738,-
 0.00002174,0.00002412,0.00001844,-0.00000763,-0.00000199,0.00000049,0.
 00000038,-0.00000416,0.00000074,0.00000677,0.00000331,-0.00000199,0.00
 000754,0.00001571,0.00004158,-0.00000515,0.00000743,0.00000157,0.00001
 935,-0.00000163,-0.00002359,0.00002892,-0.00002985,0.00000929,-0.00004
 488,-0.00005859,0.00005147,-0.00000847,0.00000840,-0.00000499,-0.00001
 629,0.00000367,-0.00000423,0.00001722,-0.00000815,-0.00001463,-0.00001
 483,-0.00001681,-0.00000632,0.00000310,0.00002555,0.00001824,-0.000001
 27,0.00000754,-0.00000581,-0.00000875,0.00001389,-0.00000131,0.0000230
 1,-0.00002434,0.00000151,0.00615089,0.00176723,-0.00202440,0.01085961,
 -0.00060989,0.01734956,0.04863359,-0.06393776,0.04985376,-0.00803738,0
 .00711668,-0.01063385,0.00362299,0.00346136,-0.00382827,-0.00003319,-0
 .00108673,-0.00056741,-0.00001821,0.00000409,0.00002236,-0.00246862,-0
 .00184218,0.00054810,-0.05622727,0.05759356,-0.00003426,0.00000453,0.0
 0000851,-0.00004093,0.00001025,-0.00001197,0.00002257,0.00000556,-0.00
 000816,0.00000151,-0.00000499,0.00000346,0.00026903,-0.00011907,0.0001
 5975,0.00000138,-0.00000369,-0.00000038,0.00001110,-0.00000143,-0.0000
 0729,-0.00001120,-0.00006943,-0.00000618,0.00000194,-0.00000087,0.0000
 0028,0.00000442,0.00001231,-0.00000742,0.00000175,0.00000031,-0.000001
 27,0.00000042,0.00000206,0.00000081,-0.00000251,-0.00000183,0.00000172
 ,-0.00002667,-0.00000592,0.00001172,-0.00001062,-0.00000277,0.00000356
 ,0.00000687,0.00001139,-0.00001168,-0.00001049,0.00001960,0.00000367,0
 .00001188,0.00000963,-0.00001091,-0.00000733,-0.00000154,0.00000117,-0
 .00000231,0.00001548,-0.00001228,-0.00000446,-0.00000437,0.00000540,-0
 .00000044,0.00000780,-0.00000428,-0.00001501,-0.00001341,-0.00001216,-
 0.00000067,-0.00000285,0.00000268,0.00000169,-0.00000336,0.,-0.0000061
 2,0.00000407,-0.00000134,0.00022094,-0.00180723,0.00196107,0.00336509,
 -0.00193215,0.00640314,-0.12977126,0.04992526,-0.23597693,-0.01741461,
 0.00857890,-0.01660744,0.00111916,-0.00418367,-0.00349653,0.00092968,-
 0.00052086,-0.00006803,0.00000781,0.00000399,-0.00000913,0.00029398,0.
 00104569,0.00043353,0.14091635,-0.05235483,0.24747168,-0.00015942,0.00
 001594,-0.00009429,0.00002952,0.00005889,0.00000378,0.00008800,0.00000
 514,-0.00004333,-0.00001193,-0.00001413,-0.00000170,-0.00042812,-0.000
 53422,0.00019622,0.00000241,-0.00001306,0.00000660,-0.00002991,0.00000
 495,0.00003121,0.00007557,-0.00001331,0.00000156,0.00000709,-0.0000041
 7,-0.00000370,0.00001641,0.00001327,-0.00000802,0.00000598,0.00000491,
 -0.00000160,0.00000421,0.00000043,-0.00000139,-0.00000872,-0.00000272,
 0.00000453,-0.00000697,-0.00006712,-0.00001159,-0.00002343,-0.00001331
 ,0.00000362,0.00001158,0.00004508,-0.00000636,0.00000430,0.00000999,-0
 .00000238,0.00000159,-0.00002163,0.00003901,-0.00000899,-0.00000440,0.
 00000737,0.00000101,0.00002387,0.00004267,0.00000534,-0.00000912,0.000
 00128,-0.00000340,0.00000587,-0.00000750,-0.00000385,-0.00000972,0.000
 00544,-0.00000581,0.00000721,0.00000299,0.,-0.00000623,-0.00000205,0.0
 0000907,0.00000029,-0.00000333,-0.00002045,-0.00078138,-0.00038843,0.0
 0408200,0.00310652,0.00014260,-0.00041753,0.00274499,-0.00105540,-0.21
 040637,0.15001629,0.01960899,-0.00884009,0.01142737,0.00415315,0.00194
 294,0.00321226,-0.00419922,0.00000243,-0.00004198,0.00003033,-0.000106
 62,0.00016671,-0.00011188,-0.00121725,-0.00215408,0.00091350,0.2168703
 7,0.00000083,-0.00001216,-0.00017850,-0.00001041,0.00003514,0.00010568
 ,0.00003086,-0.00001100,-0.00001507,-0.00002257,0.00001355,-0.00001604
 ,-0.00048969,-0.00062140,0.00014884,0.00000051,0.00000112,0.00000760,-
 0.00004466,-0.00000397,0.00000622,0.00008253,0.00002465,0.00006203,0.0
 0000305,-0.00000326,0.00000192,0.00000595,-0.00001289,0.00000927,0.000
 00205,0.00000065,0.00000144,0.00000057,-0.00000261,-0.00000167,-0.0000
 0067,0.00000118,-0.00000137,0.00003304,-0.00000836,0.00000138,0.000002
 15,-0.00000433,-0.00000380,0.00000609,0.00000210,0.00000749,0.00000945
 ,-0.00001115,-0.00001653,-0.00001267,-0.00003115,0.00002769,0.00001171
 ,0.00000136,0.00000521,0.00000121,0.00002487,0.00004370,-0.00000188,-0
 .00000011,0.00000235,0.00000221,-0.00001559,0.00000320,0.00001875,0.00
 002088,-0.00000227,-0.00000084,0.00000610,-0.00000246,-0.00000126,0.00
 000213,-0.00000053,0.00001056,-0.00001546,0.00000274,-0.00082144,-0.00
 015590,0.00003679,0.00290614,0.00420764,-0.00368405,0.00957394,-0.0045
 5591,0.00063553,0.15001399,-0.17021595,-0.02345625,0.00462013,-0.00119
 294,-0.00230583,0.00331920,0.00461111,0.00047895,-0.00000020,-0.000025
 09,0.00000754,0.00049835,-0.00025490,0.00005308,-0.00233553,-0.0019558
 4,0.00068041,-0.16545797,0.17222306,-0.00005830,0.00005787,0.00015802,
 0.00000292,0.00000710,-0.00005701,0.00002065,-0.00000929,-0.00002904,-
 0.00002357,0.00001368,-0.00000807,0.00017157,0.00016382,0.00000848,0.0
 0000057,0.00000043,0.00001475,0.00000142,-0.00001445,0.00000334,-0.000
 02425,0.00000130,-0.00001400,-0.00000204,0.00000324,0.00000158,-0.0000
 1397,-0.00002687,0.00000999,0.00000586,-0.00000082,0.00000226,-0.00000
 176,0.00000222,-0.00000100,-0.00000167,-0.00000136,-0.00000005,-0.0000
 0970,0.00000372,0.00001917,-0.00000204,-0.00000280,0.00000023,-0.00000
 736,-0.00000545,-0.00001142,-0.00001481,-0.00001639,0.00000533,0.00000
 581,0.00000712,0.00000385,0.00001550,-0.00000149,0.00000472,-0.0000816
 7,0.00006728,0.00003506,-0.00000377,0.00002552,0.00001422,0.00000925,-
 0.00000147,0.00001278,0.00000299,-0.00000346,-0.00002074,-0.00000638,0
 .00000586,0.00000388,0.00000466,-0.00000193,0.00000023,-0.00000153,0.0
 0000312,0.00000024,-0.00020886,-0.00000290,-0.00154876,-0.00030663,-0.
 00329580,-0.00437426,0.02210593,-0.01886746,0.00201170,0.01961467,-0.0
 2334747,-0.06173317,-0.01900876,0.01711634,0.00748596,-0.00381939,0.00
 011557,-0.00330714,0.00000481,-0.00003582,0.00002266,0.00109950,-0.000
 94126,-0.00011237,0.00025724,0.00121447,0.00074478,-0.02003595,0.02657
 922,0.05977741,-0.00007036,-0.00009782,-0.00011041,0.00003106,-0.00001
 488,0.00001370,0.00004637,0.00006473,-0.00006017,-0.00000934,-0.000046
 55,0.00002432,0.00031202,0.00026211,0.00121243,-0.00000969,-0.00003108
 ,0.00000410,-0.00000444,0.00005843,0.00017042,-0.00000718,-0.00013271,
 0.00010184,0.00001906,-0.00001392,-0.00001709,-0.00001272,0.00002183,-
 0.00000945,-0.00000329,0.00001100,-0.00000151,0.00000950,-0.00000673,-
 0.00000545,-0.00001094,0.00000047,0.00000484,0.00010819,-0.00012532,-0
 .00021942,-0.00000079,-0.00000965,-0.00001437,0.00000591,0.00002564,0.
 00001181,0.00000023,-0.00000325,-0.00001550,0.00000496,0.00004233,-0.0
 0002988,-0.00001925,-0.00001029,0.00000231,-0.00030994,0.00018684,0.00
 005897,-0.00001376,-0.00000275,0.00000460,0.00000640,0.00001300,0.0000
 0418,-0.00001422,-0.00000506,-0.00001260,0.00000819,-0.00000668,-0.000
 01225,-0.00000776,-0.00000191,-0.00000035,-0.00001370,0.00001642,-0.00
 000807,-0.00032875,0.00655231,-0.00090414,-0.00113613,0.00022819,-0.00
 047994,0.00104302,0.00402931,-0.00400892,0.00746132,-0.00800876,-0.016
 61934,-0.06054782,0.03029378,0.04235155,0.00016899,0.00953379,0.022010
 15,0.00002135,0.00000936,-0.00002491,-0.00037732,-0.00058111,0.0002246
 4,0.00020449,-0.00036807,-0.00086438,-0.00103762,-0.00209728,0.0011454
 1,0.05557537,-0.00000294,0.00005738,0.00014013,-0.00021435,0.00001594,
 -0.00011691,-0.00001708,-0.00001888,0.00003520,0.00000970,-0.00002302,
 -0.00000940,-0.00009140,-0.00007967,-0.00097349,0.00000308,0.00000075,
 -0.00000741,-0.00003428,0.00001107,-0.00003678,0.00007657,0.00001341,-
 0.00003254,0.00000257,0.00001037,0.00000498,-0.00000443,-0.00000511,0.
 00001472,-0.00000172,0.00000096,0.00000138,0.00000163,-0.00000325,-0.0
 0000123,0.00000316,0.00000135,-0.00000052,0.00002464,-0.00001558,0.000
 03107,0.00001168,0.00000347,0.00000406,0.00002283,-0.00001049,0.000015
 67,0.00002586,-0.00003228,0.00003246,-0.00004750,-0.00004286,0.0000326
 6,-0.00000129,0.00000901,0.00000046,0.00019357,-0.00028982,-0.00004427
 ,-0.00001078,0.00001260,0.00000764,-0.00000120,-0.00002794,-0.00000009
 ,0.00000390,0.00001174,-0.00003075,-0.00000634,0.00001354,0.00000153,-
 0.00000073,0.00001028,-0.00000235,0.00001731,-0.00002821,0.00000497,0.
 00648160,0.00220995,-0.00086993,0.00024818,-0.00071441,0.00072779,0.00
 390537,0.00419873,0.00068634,-0.00124080,0.00704397,0.00789789,0.03041
 694,-0.09653127,-0.10813316,0.00277483,-0.00399607,-0.01926217,0.00000
 713,-0.00002808,0.00000499,-0.00056256,-0.00063335,0.00012651,-0.00002
 008,0.00021221,0.00044357,-0.00228616,-0.00191824,0.00037881,-0.037268
 37,0.09252325,0.00006336,0.00003400,0.00001685,0.00006872,-0.00004658,
 0.00000324,-0.00005253,-0.00003485,0.00003741,-0.00000412,0.00002791,-
 0.00000594,-0.00028038,0.00010291,-0.00010030,0.00000358,0.00002191,-0
 .00000064,0.00001175,-0.00002414,-0.00009734,0.00005138,0.00003287,-0.
 00004515,-0.00000660,0.00000353,0.00000865,-0.00000137,-0.00001098,0.0
 0000510,-0.00000021,-0.00000702,0.00000253,-0.00000620,0.00000244,0.00
 000197,0.00000812,0.00000153,-0.00000463,-0.00004801,0.00008473,0.0000
 9990,0.00000714,0.00000713,0.00000256,-0.00000196,-0.00003011,-0.00002
 379,0.00000565,-0.00000417,0.00000258,-0.00001434,-0.00002641,0.000014
 60,0.00000968,0.00000429,-0.00000438,0.00005021,-0.00001370,0.00000953
 ,-0.00000288,0.00000248,-0.00000022,0.00000147,-0.00001419,0.00000039,
 0.00001159,0.00001244,-0.00000896,-0.00000053,-0.00000021,-0.00000082,
 0.00000123,0.00000403,0.00000150,0.00000952,-0.00001264,0.00000066,-0.
 00066200,-0.00113837,0.00223145,-0.00047975,0.00071977,0.00040493,-0.0
 0438743,0.00091868,-0.00201446,0.00653982,-0.01145385,-0.01669988,0.04
 248967,-0.10806568,-0.28642622,-0.00096687,-0.00005038,0.00109357,-0.0
 0000236,0.00001561,0.00000314,0.00021108,0.00013551,-0.00009836,0.0003
 4753,-0.00057571,-0.00091197,0.00050639,0.00094773,0.00065508,-0.04441
 183,0.11785169,0.30145836,-0.00267082,0.00094846,-0.00138352,0.0005897
 1,-0.00010980,0.00155406,-0.00013212,-0.00022457,0.00002032,0.00006911
 ,0.00003762,-0.00001287,-0.00142377,-0.00105601,0.00059620,0.00000052,
 0.00005933,-0.00002838,0.00011982,0.00003774,0.00013798,0.00016837,0.0
 0009245,-0.00008184,0.00000051,-0.00000940,-0.00000307,-0.00001265,0.0
 0000869,-0.00000878,-0.00004139,-0.00000227,-0.00000623,-0.00000534,-0
 .00000962,-0.00000501,0.00002558,0.00001178,-0.00001319,0.00006282,0.0
 0011707,-0.00028739,0.00002415,0.00001654,-0.00002515,0.00004565,0.000
 01056,0.00000388,0.00007349,-0.00007459,-0.00000489,-0.00000359,-0.000
 09001,0.00021144,-0.00001215,0.00000958,-0.00003039,-0.00005476,-0.000
 12898,-0.00007614,-0.00003176,0.00001118,0.00001643,-0.00003041,-0.000
 03273,-0.00001324,-0.00007785,0.00000850,-0.00006462,-0.00004812,0.000
 03945,-0.00000202,-0.00005675,0.00002012,-0.00000778,0.00003000,-0.000
 04960,-0.00000169,0.00761030,-0.00176246,0.00440866,0.00286587,0.00341
 410,0.00123320,-0.00048812,-0.00002116,0.00078751,0.00031906,0.0061595
 2,0.00046401,-0.00804404,0.00445745,-0.01873719,-0.14279604,0.04745904
 ,-0.12999891,0.00029258,-0.00007940,0.00007972,0.00035943,0.00002383,0
 .00043781,-0.00044480,-0.00055029,0.00010212,-0.00045323,0.00017604,-0
 .00087063,-0.00100931,-0.00243540,0.00091079,0.14568184,0.00040923,-0.
 00054248,-0.00023527,0.00025445,-0.00019945,-0.00026463,0.00016345,0.0
 0013567,-0.00008041,-0.00005790,-0.00008674,0.00002574,-0.00184412,-0.
 00147431,0.00074497,-0.00001816,-0.00007706,0.00003021,-0.00017247,0.0
 0021145,0.00046268,0.00031061,-0.00007029,-0.00057921,0.00001448,-0.00
 002124,-0.00003460,-0.00002345,0.00000940,0.00001205,0.00000456,0.0000
 3266,0.00000248,0.00002567,-0.00001790,-0.00001418,-0.00002938,-0.0000
 0018,0.00001663,0.00039813,-0.00019447,-0.00054003,0.00006500,-0.00005
 759,-0.00006471,0.00011810,0.00001223,0.00004431,-0.00005393,-0.000007
 50,0.00011064,0.00007106,-0.00011992,0.00036696,-0.00000630,-0.0000112
 3,0.00003162,-0.00015897,0.00007065,0.00013380,0.00003024,0.00005696,0
 .00006071,0.00001327,-0.00001393,-0.00000552,-0.00001054,0.00004137,-0
 .00003960,-0.00008123,0.00009053,0.00005896,0.00001398,-0.00000955,-0.
 00002448,0.00003362,-0.00001630,-0.00001155,-0.00787751,0.00767340,-0.
 01003514,0.00345141,0.00302276,-0.00355391,-0.00005026,-0.00090335,-0.
 00054417,0.00627344,0.00190553,-0.00217726,0.01132595,-0.00042116,0.01
 682675,0.04713347,-0.06460535,0.04943119,0.00013348,-0.00098143,0.0000
 4181,-0.00026070,0.00025696,-0.00070708,-0.00059270,-0.00063231,0.0002
 5415,0.00051514,-0.00015628,0.00080308,-0.00265953,-0.00196646,0.00065
 855,-0.05608728,0.05877734,-0.00125586,0.00074745,0.00091414,0.0005730
 4,0.00011342,-0.00091794,0.00033223,-0.00009707,-0.00030481,-0.0000838
 1,-0.00000366,-0.00003097,-0.00072626,0.00126581,-0.00019135,0.0000182
 9,-0.00003948,0.00008580,-0.00000462,0.00004211,-0.00010347,0.00008107
 ,-0.00014792,-0.00017553,0.00000910,0.00001627,0.00000587,-0.00000665,
 -0.00002583,0.00001986,0.00003726,0.00000338,0.00001041,0.00000354,0.0
 0001751,-0.00000520,-0.00003444,-0.00001537,0.00000913,-0.00021593,-0.
 00013321,0.00009235,-0.00002309,-0.00007146,0.00000514,0.00000046,-0.0
 0000172,-0.00008986,-0.00011428,-0.00000595,0.00002147,0.00001722,-0.0
 0004675,0.00012932,0.00001473,-0.00000842,0.00002832,0.00001656,0.0000
 5700,0.00008007,0.00002781,0.00005249,0.00005673,0.00004216,0.00001007
 ,0.00001874,0.00002746,-0.00000682,-0.00006879,-0.00006311,0.00004678,
 0.00001729,0.00001825,-0.00003268,0.00000812,0.00002875,0.00001917,-0.
 00000434,-0.01689626,0.00758934,-0.01758929,0.00118201,-0.00400195,-0.
 00340120,0.00087276,-0.00048911,-0.00002150,0.00021137,-0.00201199,0.0
 0174886,0.00359225,-0.00209578,0.00736582,-0.12860249,0.04930957,-0.23
 385635,0.00001683,-0.00034338,0.00026670,-0.00085708,0.00036410,-0.000
 95364,0.00008579,0.00027168,-0.00004807,0.00027194,-0.00016988,0.00022
 527,0.00040714,0.00111795,0.00040152,0.14054204,-0.05140286,0.24602087
 ,-0.00254163,-0.00028828,0.00107850,-0.00029127,0.00037189,-0.00151419
 ,0.00232212,-0.00195218,-0.00050515,-0.00033972,-0.00027975,0.00019857
 ,0.00017347,-0.00050718,-0.00034392,0.00013964,-0.00030289,0.00099656,
 0.00085093,0.00944358,-0.00589265,-0.00015259,-0.00007184,0.00000560,0
 .00002056,0.00002000,-0.00011743,-0.00011544,0.00007502,-0.00020634,-0
 .00149014,0.00105885,0.00033833,0.00001122,-0.00006391,-0.00057260,-0.
 00000215,-0.00001152,-0.00025786,-0.03352613,-0.09658350,0.05280543,0.
 00024879,-0.00026279,0.00015826,-0.00031036,0.00040564,-0.00177382,0.0
 0000812,0.00000644,-0.00001082,0.00005134,0.00007478,-0.00002462,-0.00
 000003,0.00001853,0.00006169,-0.00003505,0.00007777,0.00002218,0.00000
 083,-0.00000543,0.00001575,-0.00000832,0.00002424,-0.00000843,-0.00005
 958,-0.00001789,0.00000634,-0.00000191,0.00001832,0.00002350,0.0000171
 4,0.00000828,-0.00000679,-0.00002088,0.00003025,0.00000701,0.00036719,
 -0.00030096,-0.00015697,-0.00011291,-0.00000856,0.00003153,0.00009949,
 -0.00007375,0.00012424,-0.00006568,0.00003477,0.00005547,-0.00005062,0
 .00028453,0.00017096,-0.00001240,0.00056670,-0.00046524,0.00001943,-0.
 00003078,0.00002332,0.00003347,0.00002050,0.00010088,0.00001821,0.0000
 1035,0.00002009,0.00002989,-0.00003224,0.00003426,-0.00008211,0.000016
 84,0.00002070,-0.00050179,-0.00077430,0.00045383,0.03530887,0.00028067
 ,0.00029179,0.00620061,-0.00134044,0.00171968,-0.00733041,0.00125100,0
 .00043859,-0.00428907,-0.00015347,-0.00127722,0.00003992,-0.00106589,-
 0.00122784,0.00026044,-0.00015551,-0.00057920,0.00005048,0.00196158,0.
 00986871,-0.00242776,0.00011088,-0.00021338,0.00020301,0.00001013,-0.0
 0015517,-0.00036337,0.00011610,0.00014281,0.00015056,0.00087200,0.0003
 0290,-0.00017911,0.00012070,-0.00013031,0.00006422,-0.00041004,0.00004
 980,0.00033056,-0.09106659,-0.34117411,0.22205443,0.00063474,0.0002592
 3,-0.00473821,-0.00108335,-0.00044947,-0.00119074,-0.00010239,0.000129
 44,-0.00001363,-0.00005882,-0.00004334,-0.00011390,-0.00007888,-0.0000
 3220,0.00044485,0.00052100,0.00025602,0.00024622,0.00003838,0.00002206
 ,0.00003564,0.00008218,0.00005147,0.00000380,0.00006963,-0.00001525,-0
 .00000063,0.00002291,0.00001359,0.00007316,0.00019485,-0.00015793,0.00
 000517,0.00007983,0.00009920,0.00001201,-0.00003927,0.00086673,0.00052
 186,0.00011475,-0.00017518,-0.00022756,0.00009060,-0.00021169,-0.00001
 080,0.00021700,-0.00018979,0.00015099,-0.00012912,-0.00004326,0.000094
 50,0.00020827,-0.00026095,-0.00022507,-0.00017525,-0.00005093,0.000089
 64,0.00000930,0.00007229,-0.00003642,0.00005567,-0.00003524,-0.0000006
 7,0.00004961,0.00000899,0.00000670,0.00014222,0.00000503,-0.00008077,-
 0.00039547,0.00028958,0.00010720,0.08900050,0.33153454,0.00068732,0.00
 384431,-0.00185509,-0.00174400,-0.00380531,-0.00165890,0.00060656,0.00
 090263,0.00018600,-0.00020472,0.00092768,-0.00000577,-0.00001009,-0.00
 066635,-0.00066844,0.00064798,-0.00023912,-0.00018303,0.00897487,0.032
 83559,-0.03487044,0.00009889,-0.00003477,0.00015867,-0.00002485,-0.000
 01156,0.00044223,0.00005773,0.00000805,0.00003867,0.00058850,-0.000396
 30,0.00016068,-0.00011304,0.00009357,0.00020015,-0.00015151,-0.0000240
 1,0.00005388,0.03829350,0.17801313,-0.17228664,-0.00296407,-0.00192576
 ,-0.00514170,0.00007134,0.00027711,0.00056825,-0.00002507,0.00006728,-
 0.00005453,-0.00000433,0.00003897,-0.00004463,-0.00008615,-0.00006107,
 0.00013429,-0.00008939,-0.00005192,-0.00001221,0.00000005,-0.00000686,
 -0.00000180,0.00002918,0.00004041,0.00000783,0.00000803,-0.00001375,0.
 00001047,-0.00000635,-0.00001664,-0.00001570,0.00003234,-0.00005553,0.
 00005062,0.00003435,0.00005315,0.00000061,-0.00018854,0.00028862,0.000
 02498,0.00009352,-0.00004332,-0.00013925,-0.00001631,-0.00000990,-0.00
 004593,0.00004212,-0.00004314,0.00001856,-0.00009399,0.00007449,0.0000
 1610,0.00013867,-0.00026697,0.00005480,-0.00000599,-0.00000565,-0.0000
 0015,-0.00003047,-0.00000872,-0.00003406,0.00001080,-0.00001459,-0.000
 00350,0.00000495,-0.00000177,-0.00000395,0.00007759,-0.00004148,-0.000
 01248,0.00015677,0.00019732,0.00023053,-0.04489619,-0.20991782,0.21468
 087\\-0.00000496,-0.00001347,0.00002611,-0.00002188,-0.00001696,-0.000
 03680,-0.00000279,-0.00000616,-0.00003143,0.00000410,-0.00000811,0.000
 01716,0.00001409,0.00001971,-0.00000680,0.00000339,0.00000141,-0.00000
 502,0.00001024,0.00001871,0.00002514,-0.00000904,-0.00000721,0.0000050
 2,0.00000009,-0.00000188,-0.00000190,-0.00001201,-0.00000302,0.0000016
 5,0.00000290,-0.00000547,-0.00000167,0.00000228,-0.00000523,-0.0000003
 8,0.00000365,-0.00000020,-0.00000015,0.00000198,0.00000333,-0.00001488
 ,-0.00000076,0.00000210,-0.00000402,-0.00000394,-0.00000294,-0.0000066
 2,0.00000441,0.00000407,0.00000406,-0.00000545,0.00000056,-0.00000196,
 0.00000451,0.00000095,0.00001023,0.00000933,0.00000863,0.00001333,-0.0
 0000131,0.00000058,-0.00000268,-0.00000093,-0.00000033,0.00000147,-0.0
 0000404,0.00000449,0.00000041,-0.00000040,-0.00000074,-0.00000275,0.00
 000143,0.00000071,0.00000020,-0.00000242,-0.00000377,0.00000018,-0.000
 00721,0.00001092,0.00000869,0.00000481,0.00000252,0.00000381,0.0000047
 2,-0.00000190,0.00000506,0.00000464,-0.00000009,0.00000173,-0.00000032
 ,-0.00000400,-0.00000624,-0.00000157,0.00000110,-0.00000637,-0.0000004
 9,0.00000370,0.00000057,0.00000086,0.00000212,-0.00000039,0.00000207,0
 .00000257,0.00000177,0.00000286,0.00000143,-0.00000010,0.00000298,0.00
 000118,-0.00000103,-0.00000257,0.00000027,-0.00000128,-0.00000325,-0.0
 0000959,0.00000588\\\@
 The archive entry for this job was punched.


 WE THE UNWILLING
 LED BY THE UNQUALIFIED
 HAVE BEEN DOING THE UNBELIEVABLE SO LONG WITH SO LITTLE
 THAT WE NOW ATTEMPT THE IMPOSSIBLE WITH NOTHING.

                                    -- ANONYMOUS
 Job cpu time:       2 days 21 hours 34 minutes 37.7 seconds.
 Elapsed time:       0 days  3 hours 28 minutes 44.7 seconds.
 File lengths (MBytes):  RWF=   2589 Int=      0 D2E=      0 Chk=     50 Scr=      1
 Normal termination of Gaussian 16 at Tue Jan  7 23:11:15 2025.
