 Entering Gaussian System, Link 0=g16
 Input=gjfs/data_set_12-catalyst-40.gjf
 Output=gjfs/data_set_12-catalyst-40.log
 Initial command:
 /usr/local/intel/g16/l1.exe "/scr/Gau-256309.inp" -scrdir="/scr/"
 Entering Link 1 = /usr/local/intel/g16/l1.exe PID=    256319.
  
 Copyright (c) 1988-2019, Gaussian, Inc.  All Rights Reserved.
  
 This is part of the Gaussian(R) 16 program.  It is based on
 the Gaussian(R) 09 system (copyright 2009, Gaussian, Inc.),
 the Gaussian(R) 03 system (copyright 2003, Gaussian, Inc.),
 the Gaussian(R) 98 system (copyright 1998, Gaussian, Inc.),
 the Gaussian(R) 94 system (copyright 1995, Gaussian, Inc.),
 the Gaussian 92(TM) system (copyright 1992, Gaussian, Inc.),
 the Gaussian 90(TM) system (copyright 1990, Gaussian, Inc.),
 the Gaussian 88(TM) system (copyright 1988, Gaussian, Inc.),
 the Gaussian 86(TM) system (copyright 1986, Carnegie Mellon
 University), and the Gaussian 82(TM) system (copyright 1983,
 Carnegie Mellon University). Gaussian is a federally registered
 trademark of Gaussian, Inc.
  
 This software contains proprietary and confidential information,
 including trade secrets, belonging to Gaussian, Inc.
  
 This software is provided under written license and may be
 used, copied, transmitted, or stored only in accord with that
 written license.
  
 The following legend is applicable only to US Government
 contracts under FAR:
  
                    RESTRICTED RIGHTS LEGEND
  
 Use, reproduction and disclosure by the US Government is
 subject to restrictions as set forth in subparagraphs (a)
 and (c) of the Commercial Computer Software - Restricted
 Rights clause in FAR 52.227-19.
  
 Gaussian, Inc.
 340 Quinnipiac St., Bldg. 40, Wallingford CT 06492
  
  
 ---------------------------------------------------------------
 Warning -- This program may not be used in any manner that
 competes with the business of Gaussian, Inc. or will provide
 assistance to any competitor of Gaussian, Inc.  The licensee
 of this program is prohibited from giving any competitor of
 Gaussian, Inc. access to this program.  By using this program,
 the user acknowledges that Gaussian, Inc. is engaged in the
 business of creating and licensing software in the field of
 computational chemistry and represents and warrants to the
 licensee that it is not a competitor of Gaussian, Inc. and that
 it will not use this program in any manner prohibited above.
 ---------------------------------------------------------------
  

 Cite this work as:
 Gaussian 16, Revision C.01,
 M. J. Frisch, G. W. Trucks, H. B. Schlegel, G. E. Scuseria, 
 M. A. Robb, J. R. Cheeseman, G. Scalmani, V. Barone, 
 G. A. Petersson, H. Nakatsuji, X. Li, M. Caricato, A. V. Marenich, 
 J. Bloino, B. G. Janesko, R. Gomperts, B. Mennucci, H. P. Hratchian, 
 J. V. Ortiz, A. F. Izmaylov, J. L. Sonnenberg, D. Williams-Young, 
 F. Ding, F. Lipparini, F. Egidi, J. Goings, B. Peng, A. Petrone, 
 T. Henderson, D. Ranasinghe, V. G. Zakrzewski, J. Gao, N. Rega, 
 G. Zheng, W. Liang, M. Hada, M. Ehara, K. Toyota, R. Fukuda, 
 J. Hasegawa, M. Ishida, T. Nakajima, Y. Honda, O. Kitao, H. Nakai, 
 T. Vreven, K. Throssell, J. A. Montgomery, Jr., J. E. Peralta, 
 F. Ogliaro, M. J. Bearpark, J. J. Heyd, E. N. Brothers, K. N. Kudin, 
 V. N. Staroverov, T. A. Keith, R. Kobayashi, J. Normand, 
 K. Raghavachari, A. P. Rendell, J. C. Burant, S. S. Iyengar, 
 J. Tomasi, M. Cossi, J. M. Millam, M. Klene, C. Adamo, R. Cammi, 
 J. W. Ochterski, R. L. Martin, K. Morokuma, O. Farkas, 
 J. B. Foresman, and D. J. Fox, Gaussian, Inc., Wallingford CT, 2019.
 
 ******************************************
 Gaussian 16:  ES64L-G16RevC.01  3-Jul-2019
                 7-Jan-2025 
 ******************************************
 %nprocshared=20
 Will use up to   20 processors via shared memory.
 %mem=30GB
 %chk=outputs/data_set_12-catalyst-40.chk
 ----------------------------------
 #p M062X/DEF2TZVP opt freq pop=NBO
 ----------------------------------
 1/18=20,19=15,26=3,38=1/1,3;
 2/9=110,12=2,17=6,18=5,40=1/2;
 3/5=44,7=101,11=2,25=1,30=1,71=1,74=-55/1,2,3;
 4//1;
 5/5=2,38=5/2;
 6/7=2,8=2,9=2,10=2,28=1,40=1/1,7;
 7//1,2,3,16;
 1/18=20,19=15,26=3/3(2);
 2/9=110/2;
 99//99;
 2/9=110/2;
 3/5=44,7=101,11=2,25=1,30=1,71=1,74=-55/1,2,3;
 4/5=5,16=3,69=1/1;
 5/5=2,38=5/2;
 7//1,2,3,16;
 1/18=20,19=15,26=3/3(-5);
 2/9=110/2;
 6/7=2,8=2,9=2,10=2,19=2,28=1,40=1/1,7;
 99/9=1/99;
 Leave Link    1 at Tue Jan  7 16:43:06 2025, MaxMem=  4026531840 cpu:               0.7 elap:               0.2
 (Enter /usr/local/intel/g16/l101.exe)
 -----------------------
 data_set_12-catalyst-40
 -----------------------
 Symbolic Z-matrix:
 Charge =  0 Multiplicity = 2
 O                    -1.12224   1.37406  -1.4151 
 N                    -0.5739    0.60876  -0.50502 
 C                    -1.29463  -0.55074   0.0957 
 C                    -0.36909  -0.91714   1.28105 
 C                     1.03876  -0.35361   0.91962 
 C                     0.7368    0.9488    0.11361 
 C                     1.75951   1.29458  -0.97495 
 C                     0.5542    2.14093   1.07879 
 H                     1.60233  -0.10913   1.82459 
 C                     1.83432  -1.3375    0.16531 
 H                     2.74142   1.48164  -0.52817 
 H                     1.43256   2.19285  -1.5048 
 H                     1.85291   0.48466  -1.70315 
 H                     0.13458   2.98676   0.52701 
 H                     1.51893   2.44039   1.50145 
 H                    -0.12807   1.89568   1.90017 
 C                    -2.69386  -0.11187   0.55643 
 C                    -1.40017  -1.6773   -0.95185 
 H                    -2.62891   0.72231   1.26342 
 H                    -3.2081   -0.94749   1.04279 
 H                    -0.41175  -2.03233  -1.25952 
 H                    -1.92369  -1.3039   -1.83697 
 N                     2.47548  -2.13547  -0.41189 
 H                    -0.34539  -1.99393   1.45707 
 H                    -0.71857  -0.43172   2.19717 
 H                    -3.28445   0.21452  -0.30383 
 H                    -1.96187  -2.52262  -0.54021 
 
 ITRead=  0  0  0  0  0  0  0  0  0  0  0  0  0  0  0  0  0  0  0  0
 ITRead=  0  0  0  0  0  0  0
 MicOpt= -1 -1 -1 -1 -1 -1 -1 -1 -1 -1 -1 -1 -1 -1 -1 -1 -1 -1 -1 -1
 MicOpt= -1 -1 -1 -1 -1 -1 -1
 NAtoms=     27 NQM=       27 NQMF=       0 NMMI=      0 NMMIF=      0
                NMic=       0 NMicF=      0.
                    Isotopes and Nuclear Properties:
 (Nuclear quadrupole moments (NQMom) in fm**2, nuclear magnetic moments (NMagM)
  in nuclear magnetons)

  Atom         1           2           3           4           5           6           7           8           9          10
 IAtWgt=          16          14          12          12          12          12          12          12           1          12
 AtmWgt=  15.9949146  14.0030740  12.0000000  12.0000000  12.0000000  12.0000000  12.0000000  12.0000000   1.0078250  12.0000000
 NucSpn=           0           2           0           0           0           0           0           0           1           0
 AtZEff=  -0.0000000  -0.0000000  -0.0000000  -0.0000000  -0.0000000  -0.0000000  -0.0000000  -0.0000000  -0.0000000  -0.0000000
 NQMom=    0.0000000   2.0440000   0.0000000   0.0000000   0.0000000   0.0000000   0.0000000   0.0000000   0.0000000   0.0000000
 NMagM=    0.0000000   0.4037610   0.0000000   0.0000000   0.0000000   0.0000000   0.0000000   0.0000000   2.7928460   0.0000000
 AtZNuc=   8.0000000   7.0000000   6.0000000   6.0000000   6.0000000   6.0000000   6.0000000   6.0000000   1.0000000   6.0000000

  Atom        11          12          13          14          15          16          17          18          19          20
 IAtWgt=           1           1           1           1           1           1          12          12           1           1
 AtmWgt=   1.0078250   1.0078250   1.0078250   1.0078250   1.0078250   1.0078250  12.0000000  12.0000000   1.0078250   1.0078250
 NucSpn=           1           1           1           1           1           1           0           0           1           1
 AtZEff=  -0.0000000  -0.0000000  -0.0000000  -0.0000000  -0.0000000  -0.0000000  -0.0000000  -0.0000000  -0.0000000  -0.0000000
 NQMom=    0.0000000   0.0000000   0.0000000   0.0000000   0.0000000   0.0000000   0.0000000   0.0000000   0.0000000   0.0000000
 NMagM=    2.7928460   2.7928460   2.7928460   2.7928460   2.7928460   2.7928460   0.0000000   0.0000000   2.7928460   2.7928460
 AtZNuc=   1.0000000   1.0000000   1.0000000   1.0000000   1.0000000   1.0000000   6.0000000   6.0000000   1.0000000   1.0000000

  Atom        21          22          23          24          25          26          27
 IAtWgt=           1           1          14           1           1           1           1
 AtmWgt=   1.0078250   1.0078250  14.0030740   1.0078250   1.0078250   1.0078250   1.0078250
 NucSpn=           1           1           2           1           1           1           1
 AtZEff=  -0.0000000  -0.0000000  -0.0000000  -0.0000000  -0.0000000  -0.0000000  -0.0000000
 NQMom=    0.0000000   0.0000000   2.0440000   0.0000000   0.0000000   0.0000000   0.0000000
 NMagM=    2.7928460   2.7928460   0.4037610   2.7928460   2.7928460   2.7928460   2.7928460
 AtZNuc=   1.0000000   1.0000000   7.0000000   1.0000000   1.0000000   1.0000000   1.0000000
 Leave Link  101 at Tue Jan  7 16:43:08 2025, MaxMem=  4026531840 cpu:              19.0 elap:               1.1
 (Enter /usr/local/intel/g16/l103.exe)

 GradGradGradGradGradGradGradGradGradGradGradGradGradGradGradGradGradGrad
 Berny optimization.
 Initialization pass.
                           ----------------------------
                           !    Initial Parameters    !
                           ! (Angstroms and Degrees)  !
 --------------------------                            --------------------------
 ! Name  Definition              Value          Derivative Info.                !
 --------------------------------------------------------------------------------
 ! R1    R(1,2)                  1.3094         estimate D2E/DX2                !
 ! R2    R(2,3)                  1.4916         estimate D2E/DX2                !
 ! R3    R(2,6)                  1.4887         estimate D2E/DX2                !
 ! R4    R(3,4)                  1.5479         estimate D2E/DX2                !
 ! R5    R(3,17)                 1.5371         estimate D2E/DX2                !
 ! R6    R(3,18)                 1.542          estimate D2E/DX2                !
 ! R7    R(4,5)                  1.5589         estimate D2E/DX2                !
 ! R8    R(4,24)                 1.0913         estimate D2E/DX2                !
 ! R9    R(4,25)                 1.0941         estimate D2E/DX2                !
 ! R10   R(5,6)                  1.5611         estimate D2E/DX2                !
 ! R11   R(5,9)                  1.0938         estimate D2E/DX2                !
 ! R12   R(5,10)                 1.4731         estimate D2E/DX2                !
 ! R13   R(6,7)                  1.5331         estimate D2E/DX2                !
 ! R14   R(6,8)                  1.5447         estimate D2E/DX2                !
 ! R15   R(7,11)                 1.0949         estimate D2E/DX2                !
 ! R16   R(7,12)                 1.0929         estimate D2E/DX2                !
 ! R17   R(7,13)                 1.0931         estimate D2E/DX2                !
 ! R18   R(8,14)                 1.0936         estimate D2E/DX2                !
 ! R19   R(8,15)                 1.095          estimate D2E/DX2                !
 ! R20   R(8,16)                 1.0956         estimate D2E/DX2                !
 ! R21   R(10,23)                1.1752         estimate D2E/DX2                !
 ! R22   R(17,19)                1.0954         estimate D2E/DX2                !
 ! R23   R(17,20)                1.0951         estimate D2E/DX2                !
 ! R24   R(17,26)                1.0933         estimate D2E/DX2                !
 ! R25   R(18,21)                1.0944         estimate D2E/DX2                !
 ! R26   R(18,22)                1.094          estimate D2E/DX2                !
 ! R27   R(18,27)                1.0952         estimate D2E/DX2                !
 ! A1    A(1,2,3)              122.1342         estimate D2E/DX2                !
 ! A2    A(1,2,6)              121.6014         estimate D2E/DX2                !
 ! A3    A(3,2,6)              115.8253         estimate D2E/DX2                !
 ! A4    A(2,3,4)              101.7418         estimate D2E/DX2                !
 ! A5    A(2,3,17)             109.7932         estimate D2E/DX2                !
 ! A6    A(2,3,18)             109.1121         estimate D2E/DX2                !
 ! A7    A(4,3,17)             112.4792         estimate D2E/DX2                !
 ! A8    A(4,3,18)             112.8449         estimate D2E/DX2                !
 ! A9    A(17,3,18)            110.4825         estimate D2E/DX2                !
 ! A10   A(3,4,5)              106.0741         estimate D2E/DX2                !
 ! A11   A(3,4,24)             111.7186         estimate D2E/DX2                !
 ! A12   A(3,4,25)             110.1942         estimate D2E/DX2                !
 ! A13   A(5,4,24)             111.9901         estimate D2E/DX2                !
 ! A14   A(5,4,25)             108.7975         estimate D2E/DX2                !
 ! A15   A(24,4,25)            108.0378         estimate D2E/DX2                !
 ! A16   A(4,5,6)              104.2767         estimate D2E/DX2                !
 ! A17   A(4,5,9)              110.7501         estimate D2E/DX2                !
 ! A18   A(4,5,10)             111.4084         estimate D2E/DX2                !
 ! A19   A(6,5,9)              109.899          estimate D2E/DX2                !
 ! A20   A(6,5,10)             113.4102         estimate D2E/DX2                !
 ! A21   A(9,5,10)             107.1389         estimate D2E/DX2                !
 ! A22   A(2,6,5)              101.2027         estimate D2E/DX2                !
 ! A23   A(2,6,7)              110.107          estimate D2E/DX2                !
 ! A24   A(2,6,8)              109.3812         estimate D2E/DX2                !
 ! A25   A(5,6,7)              115.1968         estimate D2E/DX2                !
 ! A26   A(5,6,8)              110.1282         estimate D2E/DX2                !
 ! A27   A(7,6,8)              110.3921         estimate D2E/DX2                !
 ! A28   A(6,7,11)             110.3065         estimate D2E/DX2                !
 ! A29   A(6,7,12)             109.271          estimate D2E/DX2                !
 ! A30   A(6,7,13)             111.2769         estimate D2E/DX2                !
 ! A31   A(11,7,12)            109.0072         estimate D2E/DX2                !
 ! A32   A(11,7,13)            108.7711         estimate D2E/DX2                !
 ! A33   A(12,7,13)            108.153          estimate D2E/DX2                !
 ! A34   A(6,8,14)             109.0865         estimate D2E/DX2                !
 ! A35   A(6,8,15)             110.3703         estimate D2E/DX2                !
 ! A36   A(6,8,16)             111.6725         estimate D2E/DX2                !
 ! A37   A(14,8,15)            108.7414         estimate D2E/DX2                !
 ! A38   A(14,8,16)            108.2079         estimate D2E/DX2                !
 ! A39   A(15,8,16)            108.6927         estimate D2E/DX2                !
 ! A40   A(3,17,19)            110.9106         estimate D2E/DX2                !
 ! A41   A(3,17,20)            110.0422         estimate D2E/DX2                !
 ! A42   A(3,17,26)            109.9445         estimate D2E/DX2                !
 ! A43   A(19,17,20)           108.8013         estimate D2E/DX2                !
 ! A44   A(19,17,26)           108.2116         estimate D2E/DX2                !
 ! A45   A(20,17,26)           108.8793         estimate D2E/DX2                !
 ! A46   A(3,18,21)            111.4804         estimate D2E/DX2                !
 ! A47   A(3,18,22)            109.4525         estimate D2E/DX2                !
 ! A48   A(3,18,27)            110.1006         estimate D2E/DX2                !
 ! A49   A(21,18,22)           108.3884         estimate D2E/DX2                !
 ! A50   A(21,18,27)           108.5709         estimate D2E/DX2                !
 ! A51   A(22,18,27)           108.7893         estimate D2E/DX2                !
 ! A52   L(5,10,23,11,-1)      180.8202         estimate D2E/DX2                !
 ! A53   L(5,10,23,11,-2)      178.7994         estimate D2E/DX2                !
 ! D1    D(1,2,3,4)           -168.6032         estimate D2E/DX2                !
 ! D2    D(1,2,3,17)           -49.2729         estimate D2E/DX2                !
 ! D3    D(1,2,3,18)            71.945          estimate D2E/DX2                !
 ! D4    D(6,2,3,4)              3.9021         estimate D2E/DX2                !
 ! D5    D(6,2,3,17)           123.2324         estimate D2E/DX2                !
 ! D6    D(6,2,3,18)          -115.5497         estimate D2E/DX2                !
 ! D7    D(1,2,6,5)           -171.1907         estimate D2E/DX2                !
 ! D8    D(1,2,6,7)            -48.8691         estimate D2E/DX2                !
 ! D9    D(1,2,6,8)             72.6063         estimate D2E/DX2                !
 ! D10   D(3,2,6,5)             16.2606         estimate D2E/DX2                !
 ! D11   D(3,2,6,7)            138.5822         estimate D2E/DX2                !
 ! D12   D(3,2,6,8)            -99.9425         estimate D2E/DX2                !
 ! D13   D(2,3,4,5)            -22.8277         estimate D2E/DX2                !
 ! D14   D(2,3,4,24)          -145.1196         estimate D2E/DX2                !
 ! D15   D(2,3,4,25)            94.7714         estimate D2E/DX2                !
 ! D16   D(17,3,4,5)          -140.2348         estimate D2E/DX2                !
 ! D17   D(17,3,4,24)           97.4732         estimate D2E/DX2                !
 ! D18   D(17,3,4,25)          -22.6357         estimate D2E/DX2                !
 ! D19   D(18,3,4,5)            93.9445         estimate D2E/DX2                !
 ! D20   D(18,3,4,24)          -28.3475         estimate D2E/DX2                !
 ! D21   D(18,3,4,25)         -148.4564         estimate D2E/DX2                !
 ! D22   D(2,3,17,19)          -56.7782         estimate D2E/DX2                !
 ! D23   D(2,3,17,20)         -177.2181         estimate D2E/DX2                !
 ! D24   D(2,3,17,26)           62.8621         estimate D2E/DX2                !
 ! D25   D(4,3,17,19)           55.7403         estimate D2E/DX2                !
 ! D26   D(4,3,17,20)          -64.6995         estimate D2E/DX2                !
 ! D27   D(4,3,17,26)          175.3806         estimate D2E/DX2                !
 ! D28   D(18,3,17,19)        -177.1687         estimate D2E/DX2                !
 ! D29   D(18,3,17,20)          62.3915         estimate D2E/DX2                !
 ! D30   D(18,3,17,26)         -57.5284         estimate D2E/DX2                !
 ! D31   D(2,3,18,21)           61.6623         estimate D2E/DX2                !
 ! D32   D(2,3,18,22)          -58.2391         estimate D2E/DX2                !
 ! D33   D(2,3,18,27)         -177.7766         estimate D2E/DX2                !
 ! D34   D(4,3,18,21)          -50.6521         estimate D2E/DX2                !
 ! D35   D(4,3,18,22)         -170.5535         estimate D2E/DX2                !
 ! D36   D(4,3,18,27)           69.909          estimate D2E/DX2                !
 ! D37   D(17,3,18,21)        -177.5404         estimate D2E/DX2                !
 ! D38   D(17,3,18,22)          62.5582         estimate D2E/DX2                !
 ! D39   D(17,3,18,27)         -56.9793         estimate D2E/DX2                !
 ! D40   D(3,4,5,6)             33.4713         estimate D2E/DX2                !
 ! D41   D(3,4,5,9)            151.6341         estimate D2E/DX2                !
 ! D42   D(3,4,5,10)           -89.2206         estimate D2E/DX2                !
 ! D43   D(24,4,5,6)           155.5904         estimate D2E/DX2                !
 ! D44   D(24,4,5,9)           -86.2468         estimate D2E/DX2                !
 ! D45   D(24,4,5,10)           32.8985         estimate D2E/DX2                !
 ! D46   D(25,4,5,6)           -85.0555         estimate D2E/DX2                !
 ! D47   D(25,4,5,9)            33.1074         estimate D2E/DX2                !
 ! D48   D(25,4,5,10)          152.2526         estimate D2E/DX2                !
 ! D49   D(4,5,6,2)            -29.2747         estimate D2E/DX2                !
 ! D50   D(4,5,6,7)           -147.9919         estimate D2E/DX2                !
 ! D51   D(4,5,6,8)             86.3765         estimate D2E/DX2                !
 ! D52   D(9,5,6,2)           -148.0193         estimate D2E/DX2                !
 ! D53   D(9,5,6,7)             93.2635         estimate D2E/DX2                !
 ! D54   D(9,5,6,8)            -32.3681         estimate D2E/DX2                !
 ! D55   D(10,5,6,2)            92.0978         estimate D2E/DX2                !
 ! D56   D(10,5,6,7)           -26.6194         estimate D2E/DX2                !
 ! D57   D(10,5,6,8)          -152.251          estimate D2E/DX2                !
 ! D58   D(2,6,7,11)          -176.3225         estimate D2E/DX2                !
 ! D59   D(2,6,7,12)            63.8586         estimate D2E/DX2                !
 ! D60   D(2,6,7,13)           -55.5046         estimate D2E/DX2                !
 ! D61   D(5,6,7,11)           -62.6889         estimate D2E/DX2                !
 ! D62   D(5,6,7,12)           177.4922         estimate D2E/DX2                !
 ! D63   D(5,6,7,13)            58.129          estimate D2E/DX2                !
 ! D64   D(8,6,7,11)            62.8065         estimate D2E/DX2                !
 ! D65   D(8,6,7,12)           -57.0124         estimate D2E/DX2                !
 ! D66   D(8,6,7,13)          -176.3756         estimate D2E/DX2                !
 ! D67   D(2,6,8,14)           -57.4731         estimate D2E/DX2                !
 ! D68   D(2,6,8,15)          -176.8892         estimate D2E/DX2                !
 ! D69   D(2,6,8,16)            62.0844         estimate D2E/DX2                !
 ! D70   D(5,6,8,14)          -167.8553         estimate D2E/DX2                !
 ! D71   D(5,6,8,15)            72.7286         estimate D2E/DX2                !
 ! D72   D(5,6,8,16)           -48.2977         estimate D2E/DX2                !
 ! D73   D(7,6,8,14)            63.8299         estimate D2E/DX2                !
 ! D74   D(7,6,8,15)           -55.5862         estimate D2E/DX2                !
 ! D75   D(7,6,8,16)          -176.6125         estimate D2E/DX2                !
 --------------------------------------------------------------------------------
 Trust Radius=3.00D-01 FncErr=1.00D-07 GrdErr=1.00D-06 EigMax=2.50D+02 EigMin=1.00D-04
 Number of steps in this run=    162 maximum allowed number of steps=    162.
 GradGradGradGradGradGradGradGradGradGradGradGradGradGradGradGradGradGrad

 Leave Link  103 at Tue Jan  7 16:43:08 2025, MaxMem=  4026531840 cpu:               0.2 elap:               0.2
 (Enter /usr/local/intel/g16/l202.exe)
                          Input orientation:                          
 ---------------------------------------------------------------------
 Center     Atomic      Atomic             Coordinates (Angstroms)
 Number     Number       Type             X           Y           Z
 ---------------------------------------------------------------------
      1          8           0       -1.122241    1.374055   -1.415103
      2          7           0       -0.573898    0.608755   -0.505024
      3          6           0       -1.294627   -0.550741    0.095696
      4          6           0       -0.369087   -0.917137    1.281049
      5          6           0        1.038756   -0.353613    0.919617
      6          6           0        0.736800    0.948798    0.113607
      7          6           0        1.759505    1.294583   -0.974954
      8          6           0        0.554197    2.140932    1.078789
      9          1           0        1.602332   -0.109134    1.824591
     10          6           0        1.834317   -1.337501    0.165310
     11          1           0        2.741416    1.481639   -0.528172
     12          1           0        1.432564    2.192846   -1.504798
     13          1           0        1.852906    0.484661   -1.703153
     14          1           0        0.134578    2.986757    0.527006
     15          1           0        1.518934    2.440387    1.501452
     16          1           0       -0.128068    1.895677    1.900166
     17          6           0       -2.693862   -0.111867    0.556432
     18          6           0       -1.400174   -1.677301   -0.951847
     19          1           0       -2.628912    0.722314    1.263424
     20          1           0       -3.208102   -0.947490    1.042789
     21          1           0       -0.411752   -2.032329   -1.259515
     22          1           0       -1.923689   -1.303904   -1.836965
     23          7           0        2.475475   -2.135473   -0.411889
     24          1           0       -0.345385   -1.993928    1.457065
     25          1           0       -0.718567   -0.431722    2.197166
     26          1           0       -3.284454    0.214515   -0.303830
     27          1           0       -1.961867   -2.522620   -0.540211
 ---------------------------------------------------------------------
                    Distance matrix (angstroms):
                    1          2          3          4          5
     1  O    0.000000
     2  N    1.309430   0.000000
     3  C    2.452972   1.491558   0.000000
     4  C    3.617463   2.358040   1.547880   0.000000
     5  C    3.620174   2.357203   2.482414   1.558914   0.000000
     6  C    2.444142   1.488712   2.525002   2.463254   1.561123
     7  C    2.916249   2.477088   3.725484   3.809483   2.612552
     8  C    3.101297   2.475607   3.410238   3.200804   2.546152
     9  H    4.485395   3.267789   3.402421   2.198818   1.093785
    10  C    4.311783   3.168085   3.227093   2.505308   1.473069
    11  H    3.965610   3.428377   4.561735   4.324654   2.891936
    12  H    2.684305   2.744956   4.186457   4.547404   3.537983
    13  H    3.118572   2.709297   3.770262   3.975896   2.871318
    14  H    2.819963   2.687363   3.839602   4.007823   3.482779
    15  H    4.076661   3.429398   4.340406   3.858260   2.894052
    16  H    3.500211   2.764032   3.256061   2.890211   2.717031
    17  C    2.926586   2.477949   1.537123   2.564782   3.758029
    18  C    3.098810   2.471525   1.541955   2.574260   3.347074
    19  H    3.141549   2.713556   2.182790   2.791938   3.837657
    20  H    3.972609   3.428798   2.171585   2.849157   4.289949
    21  H    3.483167   2.751522   2.193438   2.774876   3.109771
    22  H    2.826968   2.693375   2.167522   3.505480   4.156667
    23  N    5.125113   4.103430   4.121006   3.527310   2.648036
    24  H    4.494014   3.267410   2.199358   1.091340   2.212539
    25  H    4.058605   2.899199   2.182244   1.094091   2.174032
    26  H    2.693441   2.746456   2.169020   3.505972   4.528768
    27  H    4.080991   3.425377   2.176670   2.903707   3.979878
                    6          7          8          9         10
     6  C    0.000000
     7  C    1.533120   0.000000
     8  C    1.544702   2.527238   0.000000
     9  H    2.189939   3.135694   2.591834   0.000000
    10  C    2.536608   2.869436   3.817414   2.077478   0.000000
    11  H    2.171240   1.094876   2.793012   3.059994   3.041594
    12  H    2.156613   1.092933   2.729312   4.051267   3.926069
    13  H    2.182139   1.093147   3.488421   3.586134   2.609938
    14  H    2.164913   2.785628   1.093602   3.663683   4.660380
    15  H    2.182358   2.739220   1.095004   2.571270   4.019599
    16  H    2.199175   3.491498   1.095580   2.649389   4.161024
    17  C    3.618086   4.914847   3.987210   4.479455   4.707394
    18  C    3.549401   4.337764   4.745730   4.379817   3.438813
    19  H    3.563901   4.959439   3.489807   4.348522   5.036775
    20  H    4.474543   5.811652   4.867704   4.945132   5.133037
    21  H    3.477320   3.982923   4.880249   4.155349   2.749134
    22  H    3.994696   4.589239   5.148634   5.221809   4.258268
    23  N    3.579366   3.548935   4.919458   3.141699   1.175160
    24  H    3.411105   4.599955   4.248459   2.735165   2.617370
    25  H    2.892256   4.379876   3.080462   2.372646   3.386162
    26  H    4.109003   5.201776   4.511980   5.340000   5.369419
    27  H    4.445337   5.348705   5.540799   4.911285   4.038970
                   11         12         13         14         15
    11  H    0.000000
    12  H    1.781210   0.000000
    13  H    1.778762   1.770290   0.000000
    14  H    3.189731   2.538364   3.766530   0.000000
    15  H    2.555980   3.017661   3.769071   1.778906   0.000000
    16  H    3.781824   3.757348   4.347313   1.773417   1.779971
    17  C    5.766964   5.156332   5.112208   4.195523   5.015447
    18  C    5.226009   4.827856   3.977571   5.127953   5.612060
    19  H    5.711989   5.130410   5.379940   3.647861   4.495894
    20  H    6.615539   6.155298   5.933385   5.188241   5.833777
    21  H    4.777583   4.616684   3.414781   5.355498   5.599614
    22  H    5.588863   4.858192   4.180854   5.313623   6.084110
    23  N    3.628739   4.584371   2.986646   5.709515   5.051172
    24  H    5.054609   5.427966   4.578522   5.089459   4.810489
    25  H    4.802072   5.021978   4.760748   3.899140   3.706675
    26  H    6.161740   5.254177   5.331374   4.479441   5.593397
    27  H    6.176982   5.889670   4.994864   5.990598   6.396546
                   16         17         18         19         20
    16  H    0.000000
    17  C    3.524082   0.000000
    18  C    4.745356   2.529648   0.000000
    19  H    2.834862   1.095406   3.489323   0.000000
    20  H    4.278470   1.095104   2.789229   1.781119   0.000000
    21  H    5.049088   3.491971   1.094387   4.343855   3.781144
    22  H    5.237148   2.782529   1.094042   3.770320   3.173284
    23  N    5.326744   5.635128   3.939814   6.085095   5.985853
    24  H    3.920790   3.141439   2.648715   3.553866   3.076005
    25  H    2.419439   2.587683   3.454322   2.419316   2.792201
    26  H    4.200795   1.093332   2.747618   1.773099   1.780300
    27  H    5.370252   2.747758   1.095220   3.771955   2.557347
                   21         22         23         24         25
    21  H    0.000000
    22  H    1.774825   0.000000
    23  N    3.010845   4.698403   0.000000
    24  H    2.717662   3.717232   3.386779   0.000000
    25  H    3.821612   4.299678   4.462268   1.768474   0.000000
    26  H    3.770154   2.551035   6.221809   4.076285   3.640931
    27  H    1.777819   1.779971   4.456047   2.623288   3.662087
                   26         27
    26  H    0.000000
    27  H    3.049102   0.000000
 Stoichiometry    C9H15N2O(2)
 Framework group  C1[X(C9H15N2O)]
 Deg. of freedom    75
 Full point group                 C1      NOp   1
 Largest Abelian subgroup         C1      NOp   1
 Largest concise Abelian subgroup C1      NOp   1
                         Standard orientation:                         
 ---------------------------------------------------------------------
 Center     Atomic      Atomic             Coordinates (Angstroms)
 Number     Number       Type             X           Y           Z
 ---------------------------------------------------------------------
      1          8           0       -1.122241    1.374055   -1.415103
      2          7           0       -0.573898    0.608755   -0.505024
      3          6           0       -1.294627   -0.550741    0.095696
      4          6           0       -0.369087   -0.917137    1.281049
      5          6           0        1.038756   -0.353613    0.919617
      6          6           0        0.736800    0.948798    0.113607
      7          6           0        1.759505    1.294583   -0.974954
      8          6           0        0.554197    2.140932    1.078789
      9          1           0        1.602332   -0.109134    1.824591
     10          6           0        1.834317   -1.337501    0.165310
     11          1           0        2.741416    1.481639   -0.528172
     12          1           0        1.432564    2.192846   -1.504798
     13          1           0        1.852906    0.484661   -1.703153
     14          1           0        0.134578    2.986757    0.527006
     15          1           0        1.518934    2.440387    1.501452
     16          1           0       -0.128068    1.895677    1.900166
     17          6           0       -2.693862   -0.111867    0.556432
     18          6           0       -1.400174   -1.677301   -0.951847
     19          1           0       -2.628912    0.722314    1.263424
     20          1           0       -3.208102   -0.947490    1.042789
     21          1           0       -0.411752   -2.032329   -1.259515
     22          1           0       -1.923689   -1.303904   -1.836965
     23          7           0        2.475475   -2.135473   -0.411889
     24          1           0       -0.345385   -1.993928    1.457065
     25          1           0       -0.718567   -0.431722    2.197166
     26          1           0       -3.284454    0.214515   -0.303830
     27          1           0       -1.961867   -2.522620   -0.540211
 ---------------------------------------------------------------------
 Rotational constants (GHZ):           1.1658333           0.9345945           0.7240485
 Leave Link  202 at Tue Jan  7 16:43:09 2025, MaxMem=  4026531840 cpu:               0.1 elap:               0.3
 (Enter /usr/local/intel/g16/l301.exe)
 Standard basis: def2TZVP (5D, 7F)
 Ernie: Thresh=  0.10000D-02 Tol=  0.10000D-05 Strict=F.
 There are   522 symmetry adapted cartesian basis functions of A   symmetry.
 There are   462 symmetry adapted basis functions of A   symmetry.
   462 basis functions,   732 primitive gaussians,   522 cartesian basis functions
    46 alpha electrons       45 beta electrons
       nuclear repulsion energy       759.8626660890 Hartrees.
 IExCor= 4336 DFT=T Ex+Corr=M062X ExCW=0 ScaHFX=  0.540000
 ScaDFX=  1.000000  1.000000  1.000000  1.000000 ScalE2=  1.000000  1.000000
 IRadAn=      5 IRanWt=     -1 IRanGd=            0 ICorTp=0 IEmpDi=  4
 NAtoms=   27 NActive=   27 NUniq=   27 SFac= 1.00D+00 NAtFMM=   60 NAOKFM=F Big=F
 Integral buffers will be    131072 words long.
 Raffenetti 2 integral format.
 Two-electron integral symmetry is turned on.
 Leave Link  301 at Tue Jan  7 16:43:09 2025, MaxMem=  4026531840 cpu:               1.2 elap:               0.2
 (Enter /usr/local/intel/g16/l302.exe)
 NPDir=0 NMtPBC=     1 NCelOv=     1 NCel=       1 NClECP=     1 NCelD=      1
         NCelK=      1 NCelE2=     1 NClLst=     1 CellRange=     0.0.
 One-electron integrals computed using PRISM.
 One-electron integral symmetry used in STVInt
   1 Symmetry operations used in ECPInt.
 ECPInt:  NShTT=   18528 NPrTT=   54924 LenC2=   18030 LenP2D=   41651.
 LDataN:  DoStor=T MaxTD1= 6 Len=  172
 NBasis=   462 RedAO= T EigKep=  3.11D-05  NBF=   462
 NBsUse=   462 1.00D-06 EigRej= -1.00D+00 NBFU=   462
 Precomputing XC quadrature grid using
 IXCGrd= 4 IRadAn=           5 IRanWt=          -1 IRanGd=           0 AccXCQ= 0.00D+00.
 Generated NRdTot=       0 NPtTot=           0 NUsed=           0 NTot=          32
 NSgBfM=   519   519   519   519   519 MxSgAt=    27 MxSgA2=    27.
 Leave Link  302 at Tue Jan  7 16:43:10 2025, MaxMem=  4026531840 cpu:              12.1 elap:               0.6
 (Enter /usr/local/intel/g16/l303.exe)
 DipDrv:  MaxL=1.
 Leave Link  303 at Tue Jan  7 16:43:10 2025, MaxMem=  4026531840 cpu:               2.1 elap:               0.1
 (Enter /usr/local/intel/g16/l401.exe)
 ExpMin= 9.52D-02 ExpMax= 2.70D+04 ExpMxC= 9.22D+02 IAcc=3 IRadAn=         5 AccDes= 0.00D+00
 Harris functional with IExCor= 1009 and IRadAn=       5 diagonalized for initial guess.
 HarFok:  IExCor= 1009 AccDes= 0.00D+00 IRadAn=         5 IDoV= 1 UseB2=F ITyADJ=14
 ICtDFT=  3500011 ScaDFX=  1.000000  1.000000  1.000000  1.000000
 FoFCou: FMM=F IPFlag=           0 FMFlag=      100000 FMFlg1=           0
         NFxFlg=           0 DoJE=T BraDBF=F KetDBF=T FulRan=T
         wScrn=  0.000000 ICntrl=       500 IOpCl=  0 I1Cent=   200000004 NGrid=           0
         NMat0=    1 NMatS0=      1 NMatT0=    0 NMatD0=    1 NMtDS0=    0 NMtDT0=    0
 Petite list used in FoFCou.
 Harris En= -536.382284429990    
 JPrj=0 DoOrth=F DoCkMO=F.
 Initial guess <Sx>= 0.0000 <Sy>= 0.0000 <Sz>= 0.5000 <S**2>= 0.7500 S= 0.5000
 Leave Link  401 at Tue Jan  7 16:43:12 2025, MaxMem=  4026531840 cpu:              40.8 elap:               2.0
 (Enter /usr/local/intel/g16/l502.exe)
 Integral symmetry usage will be decided dynamically.
 UHF open shell SCF:
 Using DIIS extrapolation, IDIIS=  1040.
 NGot=  4026531840 LenX=  4025971022 LenY=  4025698016
 Requested convergence on RMS density matrix=1.00D-08 within 128 cycles.
 Requested convergence on MAX density matrix=1.00D-06.
 Requested convergence on             energy=1.00D-06.
 No special actions if energy rises.
 Fock matrices will be formed incrementally for  20 cycles.
 Integral accuracy reduced to 1.0D-05 until final iterations.

 Cycle   1  Pass 0  IDiag  1:
 FoFJK:  IHMeth= 1 ICntrl=       0 DoSepK=F KAlg= 0 I1Cent=           0 FoldK=F
 IRaf= 940000000 NMat=       1 IRICut=       1 DoRegI=T DoRafI=F ISym2E= 0 IDoP0=0 IntGTp=1.
 FoFCou: FMM=F IPFlag=           0 FMFlag=      100000 FMFlg1=           0
         NFxFlg=           0 DoJE=F BraDBF=F KetDBF=F FulRan=T
         wScrn=  0.000000 ICntrl=         0 IOpCl=  1 I1Cent=           0 NGrid=           0
         NMat0=    1 NMatS0=      1 NMatT0=    0 NMatD0=    1 NMtDS0=    0 NMtDT0=    0
 Symmetry not used in FoFCou.
 E= -536.221464297506    
 DIIS: error= 2.19D-02 at cycle   1 NSaved=   1.
 NSaved= 1 IEnMin= 1 EnMin= -536.221464297506     IErMin= 1 ErrMin= 2.19D-02
 ErrMax= 2.19D-02  0.00D+00 EMaxC= 1.00D-01 BMatC= 1.92D+00 BMatP= 1.92D+00
 IDIUse=3 WtCom= 7.81D-01 WtEn= 2.19D-01
 Coeff-Com:  0.100D+01
 Coeff-En:   0.100D+01
 Coeff:      0.100D+01
 Gap=     0.359 Goal=   None    Shift=    0.000
 Gap=     0.235 Goal=   None    Shift=    0.000
 GapD=    0.235 DampG=1.000 DampE=0.500 DampFc=0.5000 IDamp=-1.
 Damping current iteration by 5.00D-01
 RMSDP=3.35D-03 MaxDP=3.88D-01              OVMax= 1.65D-01

 Cycle   2  Pass 0  IDiag  1:
 RMSU=  1.67D-03    CP:  9.85D-01
 E= -536.408361882728     Delta-E=       -0.186897585222 Rises=F Damp=T
 DIIS: error= 4.43D-03 at cycle   2 NSaved=   2.
 NSaved= 2 IEnMin= 2 EnMin= -536.408361882728     IErMin= 2 ErrMin= 4.43D-03
 ErrMax= 4.43D-03  0.00D+00 EMaxC= 1.00D-01 BMatC= 1.78D-01 BMatP= 1.92D+00
 IDIUse=3 WtCom= 9.56D-01 WtEn= 4.43D-02
 Coeff-Com: -0.205D-01 0.102D+01
 Coeff-En:   0.000D+00 0.100D+01
 Coeff:     -0.196D-01 0.102D+01
 Gap=     0.328 Goal=   None    Shift=    0.000
 Gap=     0.321 Goal=   None    Shift=    0.000
 RMSDP=9.86D-04 MaxDP=8.51D-02 DE=-1.87D-01 OVMax= 1.30D-01

 Cycle   3  Pass 0  IDiag  1:
 RMSU=  9.73D-04    CP:  9.66D-01  1.03D+00
 E= -536.577037466456     Delta-E=       -0.168675583728 Rises=F Damp=F
 DIIS: error= 6.75D-03 at cycle   3 NSaved=   3.
 NSaved= 3 IEnMin= 3 EnMin= -536.577037466456     IErMin= 2 ErrMin= 4.43D-03
 ErrMax= 6.75D-03  0.00D+00 EMaxC= 1.00D-01 BMatC= 1.61D-01 BMatP= 1.78D-01
 IDIUse=3 WtCom= 9.32D-01 WtEn= 6.75D-02
 Coeff-Com: -0.825D-01 0.537D+00 0.546D+00
 Coeff-En:   0.000D+00 0.000D+00 0.100D+01
 Coeff:     -0.770D-01 0.501D+00 0.576D+00
 Gap=     0.312 Goal=   None    Shift=    0.000
 Gap=     0.299 Goal=   None    Shift=    0.000
 RMSDP=5.20D-04 MaxDP=6.23D-02 DE=-1.69D-01 OVMax= 7.86D-02

 Cycle   4  Pass 0  IDiag  1:
 RMSU=  3.87D-04    CP:  9.73D-01  1.20D+00  7.89D-01
 E= -536.601603902752     Delta-E=       -0.024566436295 Rises=F Damp=F
 DIIS: error= 3.63D-03 at cycle   4 NSaved=   4.
 NSaved= 4 IEnMin= 4 EnMin= -536.601603902752     IErMin= 4 ErrMin= 3.63D-03
 ErrMax= 3.63D-03  0.00D+00 EMaxC= 1.00D-01 BMatC= 3.67D-02 BMatP= 1.61D-01
 IDIUse=3 WtCom= 9.64D-01 WtEn= 3.63D-02
 Coeff-Com: -0.237D-01 0.763D-01 0.342D+00 0.605D+00
 Coeff-En:   0.000D+00 0.000D+00 0.218D+00 0.782D+00
 Coeff:     -0.229D-01 0.736D-01 0.338D+00 0.612D+00
 Gap=     0.308 Goal=   None    Shift=    0.000
 Gap=     0.305 Goal=   None    Shift=    0.000
 RMSDP=2.53D-04 MaxDP=3.66D-02 DE=-2.46D-02 OVMax= 1.97D-02

 Cycle   5  Pass 0  IDiag  1:
 RMSU=  1.31D-04    CP:  9.68D-01  1.12D+00  9.06D-01  7.03D-01
 E= -536.608949228954     Delta-E=       -0.007345326202 Rises=F Damp=F
 DIIS: error= 6.39D-04 at cycle   5 NSaved=   5.
 NSaved= 5 IEnMin= 5 EnMin= -536.608949228954     IErMin= 5 ErrMin= 6.39D-04
 ErrMax= 6.39D-04  0.00D+00 EMaxC= 1.00D-01 BMatC= 1.45D-03 BMatP= 3.67D-02
 IDIUse=3 WtCom= 9.94D-01 WtEn= 6.39D-03
 Coeff-Com: -0.740D-02 0.136D-01 0.156D+00 0.316D+00 0.522D+00
 Coeff-En:   0.000D+00 0.000D+00 0.000D+00 0.000D+00 0.100D+01
 Coeff:     -0.736D-02 0.135D-01 0.155D+00 0.313D+00 0.525D+00
 Gap=     0.306 Goal=   None    Shift=    0.000
 Gap=     0.307 Goal=   None    Shift=    0.000
 RMSDP=4.52D-05 MaxDP=3.35D-03 DE=-7.35D-03 OVMax= 4.78D-03

 Cycle   6  Pass 0  IDiag  1:
 RMSU=  4.36D-05    CP:  9.68D-01  1.12D+00  9.09D-01  7.15D-01  9.48D-01
 E= -536.609221315286     Delta-E=       -0.000272086332 Rises=F Damp=F
 DIIS: error= 2.66D-04 at cycle   6 NSaved=   6.
 NSaved= 6 IEnMin= 6 EnMin= -536.609221315286     IErMin= 6 ErrMin= 2.66D-04
 ErrMax= 2.66D-04  0.00D+00 EMaxC= 1.00D-01 BMatC= 1.87D-04 BMatP= 1.45D-03
 IDIUse=3 WtCom= 9.97D-01 WtEn= 2.66D-03
 Coeff-Com:  0.219D-02-0.997D-02 0.103D-01 0.224D-01 0.226D+00 0.749D+00
 Coeff-En:   0.000D+00 0.000D+00 0.000D+00 0.000D+00 0.000D+00 0.100D+01
 Coeff:      0.218D-02-0.995D-02 0.103D-01 0.224D-01 0.225D+00 0.750D+00
 Gap=     0.307 Goal=   None    Shift=    0.000
 Gap=     0.307 Goal=   None    Shift=    0.000
 RMSDP=3.07D-05 MaxDP=2.67D-03 DE=-2.72D-04 OVMax= 6.50D-03

 Cycle   7  Pass 0  IDiag  1:
 RMSU=  2.04D-05    CP:  9.68D-01  1.11D+00  9.17D-01  7.29D-01  1.08D+00
                    CP:  1.12D+00
 E= -536.609281778728     Delta-E=       -0.000060463442 Rises=F Damp=F
 DIIS: error= 2.31D-04 at cycle   7 NSaved=   7.
 NSaved= 7 IEnMin= 7 EnMin= -536.609281778728     IErMin= 7 ErrMin= 2.31D-04
 ErrMax= 2.31D-04  0.00D+00 EMaxC= 1.00D-01 BMatC= 6.55D-05 BMatP= 1.87D-04
 IDIUse=3 WtCom= 9.98D-01 WtEn= 2.31D-03
 Coeff-Com:  0.310D-02-0.822D-02-0.275D-01-0.648D-01-0.423D-01 0.386D+00
 Coeff-Com:  0.753D+00
 Coeff-En:   0.000D+00 0.000D+00 0.000D+00 0.000D+00 0.000D+00 0.000D+00
 Coeff-En:   0.100D+01
 Coeff:      0.309D-02-0.820D-02-0.274D-01-0.646D-01-0.422D-01 0.385D+00
 Coeff:      0.754D+00
 Gap=     0.308 Goal=   None    Shift=    0.000
 Gap=     0.308 Goal=   None    Shift=    0.000
 RMSDP=2.58D-05 MaxDP=2.27D-03 DE=-6.05D-05 OVMax= 2.64D-03

 Cycle   8  Pass 0  IDiag  1:
 RMSU=  9.76D-06    CP:  9.67D-01  1.11D+00  9.23D-01  7.29D-01  1.19D+00
                    CP:  1.44D+00  1.21D+00
 E= -536.609304025799     Delta-E=       -0.000022247071 Rises=F Damp=F
 DIIS: error= 7.34D-05 at cycle   8 NSaved=   8.
 NSaved= 8 IEnMin= 8 EnMin= -536.609304025799     IErMin= 8 ErrMin= 7.34D-05
 ErrMax= 7.34D-05  0.00D+00 EMaxC= 1.00D-01 BMatC= 9.17D-06 BMatP= 6.55D-05
 IDIUse=1 WtCom= 1.00D+00 WtEn= 0.00D+00
 Coeff-Com:  0.721D-03-0.673D-03-0.105D-01-0.316D-01-0.849D-01-0.181D-01
 Coeff-Com:  0.216D+00 0.929D+00
 Coeff:      0.721D-03-0.673D-03-0.105D-01-0.316D-01-0.849D-01-0.181D-01
 Coeff:      0.216D+00 0.929D+00
 Gap=     0.308 Goal=   None    Shift=    0.000
 Gap=     0.308 Goal=   None    Shift=    0.000
 RMSDP=1.32D-05 MaxDP=1.35D-03 DE=-2.22D-05 OVMax= 2.47D-03

 Cycle   9  Pass 0  IDiag  1:
 RMSU=  4.94D-06    CP:  9.67D-01  1.10D+00  9.26D-01  7.27D-01  1.24D+00
                    CP:  1.59D+00  1.45D+00  1.36D+00
 E= -536.609309086951     Delta-E=       -0.000005061152 Rises=F Damp=F
 DIIS: error= 3.83D-05 at cycle   9 NSaved=   9.
 NSaved= 9 IEnMin= 9 EnMin= -536.609309086951     IErMin= 9 ErrMin= 3.83D-05
 ErrMax= 3.83D-05  0.00D+00 EMaxC= 1.00D-01 BMatC= 1.58D-06 BMatP= 9.17D-06
 IDIUse=1 WtCom= 1.00D+00 WtEn= 0.00D+00
 Coeff-Com: -0.322D-03 0.107D-02 0.414D-02 0.583D-02-0.859D-02-0.506D-01
 Coeff-Com: -0.129D+00 0.146D+00 0.103D+01
 Coeff:     -0.322D-03 0.107D-02 0.414D-02 0.583D-02-0.859D-02-0.506D-01
 Coeff:     -0.129D+00 0.146D+00 0.103D+01
 Gap=     0.308 Goal=   None    Shift=    0.000
 Gap=     0.308 Goal=   None    Shift=    0.000
 RMSDP=6.66D-06 MaxDP=5.37D-04 DE=-5.06D-06 OVMax= 9.10D-04

 Initial convergence to 1.0D-05 achieved.  Increase integral accuracy.
 Cycle  10  Pass 1  IDiag  1:
 E= -536.609385462681     Delta-E=       -0.000076375730 Rises=F Damp=F
 DIIS: error= 1.10D-04 at cycle   1 NSaved=   1.
 NSaved= 1 IEnMin= 1 EnMin= -536.609385462681     IErMin= 1 ErrMin= 1.10D-04
 ErrMax= 1.10D-04  0.00D+00 EMaxC= 1.00D-01 BMatC= 1.55D-05 BMatP= 1.55D-05
 IDIUse=3 WtCom= 9.99D-01 WtEn= 1.10D-03
 Coeff-Com:  0.100D+01
 Coeff-En:   0.100D+01
 Coeff:      0.100D+01
 Gap=     0.308 Goal=   None    Shift=    0.000
 Gap=     0.308 Goal=   None    Shift=    0.000
 RMSDP=6.66D-06 MaxDP=5.37D-04 DE=-7.64D-05 OVMax= 1.75D-04

 Cycle  11  Pass 1  IDiag  1:
 RMSU=  5.00D-05    CP:  1.00D+00
 E= -536.609386830604     Delta-E=       -0.000001367923 Rises=F Damp=F
 DIIS: error= 8.62D-06 at cycle   2 NSaved=   2.
 NSaved= 2 IEnMin= 2 EnMin= -536.609386830604     IErMin= 2 ErrMin= 8.62D-06
 ErrMax= 8.62D-06  0.00D+00 EMaxC= 1.00D-01 BMatC= 1.41D-07 BMatP= 1.55D-05
 IDIUse=1 WtCom= 1.00D+00 WtEn= 0.00D+00
 Coeff-Com: -0.168D-02 0.100D+01
 Coeff:     -0.168D-02 0.100D+01
 Gap=     0.308 Goal=   None    Shift=    0.000
 Gap=     0.308 Goal=   None    Shift=    0.000
 RMSDP=2.23D-06 MaxDP=1.33D-04 DE=-1.37D-06 OVMax= 2.02D-04

 Cycle  12  Pass 1  IDiag  1:
 RMSU=  1.41D-06    CP:  1.00D+00  1.03D+00
 E= -536.609386847235     Delta-E=       -0.000000016631 Rises=F Damp=F
 DIIS: error= 1.18D-05 at cycle   3 NSaved=   3.
 NSaved= 3 IEnMin= 3 EnMin= -536.609386847235     IErMin= 2 ErrMin= 8.62D-06
 ErrMax= 1.18D-05  0.00D+00 EMaxC= 1.00D-01 BMatC= 2.22D-07 BMatP= 1.41D-07
 IDIUse=1 WtCom= 1.00D+00 WtEn= 0.00D+00
 Coeff-Com: -0.926D-02 0.573D+00 0.436D+00
 Coeff:     -0.926D-02 0.573D+00 0.436D+00
 Gap=     0.308 Goal=   None    Shift=    0.000
 Gap=     0.308 Goal=   None    Shift=    0.000
 RMSDP=4.69D-07 MaxDP=3.05D-05 DE=-1.66D-08 OVMax= 4.37D-05

 Cycle  13  Pass 1  IDiag  1:
 RMSU=  4.55D-07    CP:  1.00D+00  1.04D+00  9.76D-01
 E= -536.609386889344     Delta-E=       -0.000000042109 Rises=F Damp=F
 DIIS: error= 2.59D-06 at cycle   4 NSaved=   4.
 NSaved= 4 IEnMin= 4 EnMin= -536.609386889344     IErMin= 4 ErrMin= 2.59D-06
 ErrMax= 2.59D-06  0.00D+00 EMaxC= 1.00D-01 BMatC= 1.00D-08 BMatP= 1.41D-07
 IDIUse=1 WtCom= 1.00D+00 WtEn= 0.00D+00
 Coeff-Com: -0.294D-02 0.724D-01 0.876D-01 0.843D+00
 Coeff:     -0.294D-02 0.724D-01 0.876D-01 0.843D+00
 Gap=     0.308 Goal=   None    Shift=    0.000
 Gap=     0.308 Goal=   None    Shift=    0.000
 RMSDP=2.45D-07 MaxDP=1.86D-05 DE=-4.21D-08 OVMax= 6.96D-05

 Cycle  14  Pass 1  IDiag  1:
 RMSU=  2.14D-07    CP:  1.00D+00  1.04D+00  1.03D+00  1.19D+00
 E= -536.609386895112     Delta-E=       -0.000000005768 Rises=F Damp=F
 DIIS: error= 2.80D-06 at cycle   5 NSaved=   5.
 NSaved= 5 IEnMin= 5 EnMin= -536.609386895112     IErMin= 4 ErrMin= 2.59D-06
 ErrMax= 2.80D-06  0.00D+00 EMaxC= 1.00D-01 BMatC= 8.78D-09 BMatP= 1.00D-08
 IDIUse=1 WtCom= 1.00D+00 WtEn= 0.00D+00
 Coeff-Com:  0.365D-02-0.267D+00-0.256D+00 0.475D+00 0.104D+01
 Coeff:      0.365D-02-0.267D+00-0.256D+00 0.475D+00 0.104D+01
 Gap=     0.308 Goal=   None    Shift=    0.000
 Gap=     0.308 Goal=   None    Shift=    0.000
 RMSDP=3.65D-07 MaxDP=2.76D-05 DE=-5.77D-09 OVMax= 5.90D-05

 Cycle  15  Pass 1  IDiag  1:
 RMSU=  2.20D-07    CP:  1.00D+00  1.04D+00  1.14D+00  1.68D+00  1.38D+00
 E= -536.609386899547     Delta-E=       -0.000000004435 Rises=F Damp=F
 DIIS: error= 5.67D-07 at cycle   6 NSaved=   6.
 NSaved= 6 IEnMin= 6 EnMin= -536.609386899547     IErMin= 6 ErrMin= 5.67D-07
 ErrMax= 5.67D-07  0.00D+00 EMaxC= 1.00D-01 BMatC= 5.43D-10 BMatP= 8.78D-09
 IDIUse=1 WtCom= 1.00D+00 WtEn= 0.00D+00
 Coeff-Com:  0.137D-02-0.824D-01-0.990D-01 0.512D-01 0.261D+00 0.868D+00
 Coeff:      0.137D-02-0.824D-01-0.990D-01 0.512D-01 0.261D+00 0.868D+00
 Gap=     0.308 Goal=   None    Shift=    0.000
 Gap=     0.308 Goal=   None    Shift=    0.000
 RMSDP=8.92D-08 MaxDP=8.60D-06 DE=-4.43D-09 OVMax= 1.90D-05

 Cycle  16  Pass 1  IDiag  1:
 RMSU=  4.12D-08    CP:  1.00D+00  1.04D+00  1.14D+00  1.78D+00  1.52D+00
                    CP:  1.25D+00
 E= -536.609386899858     Delta-E=       -0.000000000311 Rises=F Damp=F
 DIIS: error= 2.18D-07 at cycle   7 NSaved=   7.
 NSaved= 7 IEnMin= 7 EnMin= -536.609386899858     IErMin= 7 ErrMin= 2.18D-07
 ErrMax= 2.18D-07  0.00D+00 EMaxC= 1.00D-01 BMatC= 1.25D-10 BMatP= 5.43D-10
 IDIUse=1 WtCom= 1.00D+00 WtEn= 0.00D+00
 Coeff-Com: -0.540D-04 0.120D-01-0.148D-02-0.502D-01-0.803D-01 0.366D+00
 Coeff-Com:  0.754D+00
 Coeff:     -0.540D-04 0.120D-01-0.148D-02-0.502D-01-0.803D-01 0.366D+00
 Coeff:      0.754D+00
 Gap=     0.308 Goal=   None    Shift=    0.000
 Gap=     0.308 Goal=   None    Shift=    0.000
 RMSDP=3.84D-08 MaxDP=2.14D-06 DE=-3.11D-10 OVMax= 5.54D-06

 Cycle  17  Pass 1  IDiag  1:
 RMSU=  2.04D-08    CP:  1.00D+00  1.04D+00  1.14D+00  1.80D+00  1.55D+00
                    CP:  1.37D+00  1.14D+00
 E= -536.609386899909     Delta-E=       -0.000000000051 Rises=F Damp=F
 DIIS: error= 1.21D-07 at cycle   8 NSaved=   8.
 NSaved= 8 IEnMin= 8 EnMin= -536.609386899909     IErMin= 8 ErrMin= 1.21D-07
 ErrMax= 1.21D-07  0.00D+00 EMaxC= 1.00D-01 BMatC= 3.47D-11 BMatP= 1.25D-10
 IDIUse=1 WtCom= 1.00D+00 WtEn= 0.00D+00
 Coeff-Com: -0.180D-03 0.160D-01 0.883D-02-0.358D-01-0.793D-01 0.127D+00
 Coeff-Com:  0.444D+00 0.520D+00
 Coeff:     -0.180D-03 0.160D-01 0.883D-02-0.358D-01-0.793D-01 0.127D+00
 Coeff:      0.444D+00 0.520D+00
 Gap=     0.308 Goal=   None    Shift=    0.000
 Gap=     0.308 Goal=   None    Shift=    0.000
 RMSDP=1.33D-08 MaxDP=1.55D-06 DE=-5.14D-11 OVMax= 1.13D-06

 Cycle  18  Pass 1  IDiag  1:
 RMSU=  8.39D-09    CP:  1.00D+00  1.04D+00  1.14D+00  1.81D+00  1.57D+00
                    CP:  1.40D+00  1.23D+00  1.19D+00
 E= -536.609386899912     Delta-E=       -0.000000000003 Rises=F Damp=F
 DIIS: error= 4.97D-08 at cycle   9 NSaved=   9.
 NSaved= 9 IEnMin= 9 EnMin= -536.609386899912     IErMin= 9 ErrMin= 4.97D-08
 ErrMax= 4.97D-08  0.00D+00 EMaxC= 1.00D-01 BMatC= 4.58D-12 BMatP= 3.47D-11
 IDIUse=1 WtCom= 1.00D+00 WtEn= 0.00D+00
 Coeff-Com: -0.842D-04 0.568D-02 0.483D-02-0.421D-02-0.223D-01-0.270D-01
 Coeff-Com:  0.389D-01 0.259D+00 0.745D+00
 Coeff:     -0.842D-04 0.568D-02 0.483D-02-0.421D-02-0.223D-01-0.270D-01
 Coeff:      0.389D-01 0.259D+00 0.745D+00
 Gap=     0.308 Goal=   None    Shift=    0.000
 Gap=     0.308 Goal=   None    Shift=    0.000
 RMSDP=6.04D-09 MaxDP=2.52D-07 DE=-2.73D-12 OVMax= 1.15D-06

 SCF Done:  E(UM062X) =  -536.609386900     A.U. after   18 cycles
            NFock= 18  Conv=0.60D-08     -V/T= 2.0060
 <Sx>= 0.0000 <Sy>= 0.0000 <Sz>= 0.5000 <S**2>= 0.7562 S= 0.5031
 <L.S>=  0.00000000000    
 KE= 5.334072852290D+02 PE=-2.767061755827D+03 EE= 9.371824176090D+02
 Annihilation of the first spin contaminant:
 S**2 before annihilation     0.7562,   after     0.7500
 Leave Link  502 at Tue Jan  7 16:47:57 2025, MaxMem=  4026531840 cpu:            5682.1 elap:             284.3
 (Enter /usr/local/intel/g16/l601.exe)
 Copying SCF densities to generalized density rwf, IOpCl= 1 IROHF=0.

 **********************************************************************

            Population analysis using the SCF Density.

 **********************************************************************

 Orbital symmetries:
 Alpha Orbitals:
       Occupied  (A) (A) (A) (A) (A) (A) (A) (A) (A) (A) (A) (A)
                 (A) (A) (A) (A) (A) (A) (A) (A) (A) (A) (A) (A)
                 (A) (A) (A) (A) (A) (A) (A) (A) (A) (A) (A) (A)
                 (A) (A) (A) (A) (A) (A) (A) (A) (A) (A)
       Virtual   (A) (A) (A) (A) (A) (A) (A) (A) (A) (A) (A) (A)
                 (A) (A) (A) (A) (A) (A) (A) (A) (A) (A) (A) (A)
                 (A) (A) (A) (A) (A) (A) (A) (A) (A) (A) (A) (A)
                 (A) (A) (A) (A) (A) (A) (A) (A) (A) (A) (A) (A)
                 (A) (A) (A) (A) (A) (A) (A) (A) (A) (A) (A) (A)
                 (A) (A) (A) (A) (A) (A) (A) (A) (A) (A) (A) (A)
                 (A) (A) (A) (A) (A) (A) (A) (A) (A) (A) (A) (A)
                 (A) (A) (A) (A) (A) (A) (A) (A) (A) (A) (A) (A)
                 (A) (A) (A) (A) (A) (A) (A) (A) (A) (A) (A) (A)
                 (A) (A) (A) (A) (A) (A) (A) (A) (A) (A) (A) (A)
                 (A) (A) (A) (A) (A) (A) (A) (A) (A) (A) (A) (A)
                 (A) (A) (A) (A) (A) (A) (A) (A) (A) (A) (A) (A)
                 (A) (A) (A) (A) (A) (A) (A) (A) (A) (A) (A) (A)
                 (A) (A) (A) (A) (A) (A) (A) (A) (A) (A) (A) (A)
                 (A) (A) (A) (A) (A) (A) (A) (A) (A) (A) (A) (A)
                 (A) (A) (A) (A) (A) (A) (A) (A) (A) (A) (A) (A)
                 (A) (A) (A) (A) (A) (A) (A) (A) (A) (A) (A) (A)
                 (A) (A) (A) (A) (A) (A) (A) (A) (A) (A) (A) (A)
                 (A) (A) (A) (A) (A) (A) (A) (A) (A) (A) (A) (A)
                 (A) (A) (A) (A) (A) (A) (A) (A) (A) (A) (A) (A)
                 (A) (A) (A) (A) (A) (A) (A) (A) (A) (A) (A) (A)
                 (A) (A) (A) (A) (A) (A) (A) (A) (A) (A) (A) (A)
                 (A) (A) (A) (A) (A) (A) (A) (A) (A) (A) (A) (A)
                 (A) (A) (A) (A) (A) (A) (A) (A) (A) (A) (A) (A)
                 (A) (A) (A) (A) (A) (A) (A) (A) (A) (A) (A) (A)
                 (A) (A) (A) (A) (A) (A) (A) (A) (A) (A) (A) (A)
                 (A) (A) (A) (A) (A) (A) (A) (A) (A) (A) (A) (A)
                 (A) (A) (A) (A) (A) (A) (A) (A) (A) (A) (A) (A)
                 (A) (A) (A) (A) (A) (A) (A) (A) (A) (A) (A) (A)
                 (A) (A) (A) (A) (A) (A) (A) (A) (A) (A) (A) (A)
                 (A) (A) (A) (A) (A) (A) (A) (A) (A) (A) (A) (A)
                 (A) (A) (A) (A) (A) (A) (A) (A) (A) (A) (A) (A)
                 (A) (A) (A) (A) (A) (A) (A) (A) (A) (A) (A) (A)
                 (A) (A) (A) (A) (A) (A) (A) (A) (A) (A) (A) (A)
                 (A) (A) (A) (A) (A) (A) (A) (A)
 Beta  Orbitals:
       Occupied  (A) (A) (A) (A) (A) (A) (A) (A) (A) (A) (A) (A)
                 (A) (A) (A) (A) (A) (A) (A) (A) (A) (A) (A) (A)
                 (A) (A) (A) (A) (A) (A) (A) (A) (A) (A) (A) (A)
                 (A) (A) (A) (A) (A) (A) (A) (A) (A)
       Virtual   (A) (A) (A) (A) (A) (A) (A) (A) (A) (A) (A) (A)
                 (A) (A) (A) (A) (A) (A) (A) (A) (A) (A) (A) (A)
                 (A) (A) (A) (A) (A) (A) (A) (A) (A) (A) (A) (A)
                 (A) (A) (A) (A) (A) (A) (A) (A) (A) (A) (A) (A)
                 (A) (A) (A) (A) (A) (A) (A) (A) (A) (A) (A) (A)
                 (A) (A) (A) (A) (A) (A) (A) (A) (A) (A) (A) (A)
                 (A) (A) (A) (A) (A) (A) (A) (A) (A) (A) (A) (A)
                 (A) (A) (A) (A) (A) (A) (A) (A) (A) (A) (A) (A)
                 (A) (A) (A) (A) (A) (A) (A) (A) (A) (A) (A) (A)
                 (A) (A) (A) (A) (A) (A) (A) (A) (A) (A) (A) (A)
                 (A) (A) (A) (A) (A) (A) (A) (A) (A) (A) (A) (A)
                 (A) (A) (A) (A) (A) (A) (A) (A) (A) (A) (A) (A)
                 (A) (A) (A) (A) (A) (A) (A) (A) (A) (A) (A) (A)
                 (A) (A) (A) (A) (A) (A) (A) (A) (A) (A) (A) (A)
                 (A) (A) (A) (A) (A) (A) (A) (A) (A) (A) (A) (A)
                 (A) (A) (A) (A) (A) (A) (A) (A) (A) (A) (A) (A)
                 (A) (A) (A) (A) (A) (A) (A) (A) (A) (A) (A) (A)
                 (A) (A) (A) (A) (A) (A) (A) (A) (A) (A) (A) (A)
                 (A) (A) (A) (A) (A) (A) (A) (A) (A) (A) (A) (A)
                 (A) (A) (A) (A) (A) (A) (A) (A) (A) (A) (A) (A)
                 (A) (A) (A) (A) (A) (A) (A) (A) (A) (A) (A) (A)
                 (A) (A) (A) (A) (A) (A) (A) (A) (A) (A) (A) (A)
                 (A) (A) (A) (A) (A) (A) (A) (A) (A) (A) (A) (A)
                 (A) (A) (A) (A) (A) (A) (A) (A) (A) (A) (A) (A)
                 (A) (A) (A) (A) (A) (A) (A) (A) (A) (A) (A) (A)
                 (A) (A) (A) (A) (A) (A) (A) (A) (A) (A) (A) (A)
                 (A) (A) (A) (A) (A) (A) (A) (A) (A) (A) (A) (A)
                 (A) (A) (A) (A) (A) (A) (A) (A) (A) (A) (A) (A)
                 (A) (A) (A) (A) (A) (A) (A) (A) (A) (A) (A) (A)
                 (A) (A) (A) (A) (A) (A) (A) (A) (A) (A) (A) (A)
                 (A) (A) (A) (A) (A) (A) (A) (A) (A) (A) (A) (A)
                 (A) (A) (A) (A) (A) (A) (A) (A) (A) (A) (A) (A)
                 (A) (A) (A) (A) (A) (A) (A) (A) (A) (A) (A) (A)
                 (A) (A) (A) (A) (A) (A) (A) (A) (A) (A) (A) (A)
                 (A) (A) (A) (A) (A) (A) (A) (A) (A)
 The electronic state is 2-A.
 Alpha  occ. eigenvalues --  -19.64130 -14.84497 -14.76518 -10.61714 -10.60954
 Alpha  occ. eigenvalues --  -10.60610 -10.59069 -10.57455 -10.55115 -10.54156
 Alpha  occ. eigenvalues --  -10.54019 -10.53771  -1.21084  -1.02703  -1.00235
 Alpha  occ. eigenvalues --   -0.92909  -0.87835  -0.83203  -0.80569  -0.79343
 Alpha  occ. eigenvalues --   -0.76846  -0.69164  -0.64014  -0.61632  -0.57857
 Alpha  occ. eigenvalues --   -0.56592  -0.54293  -0.53722  -0.51748  -0.51408
 Alpha  occ. eigenvalues --   -0.49249  -0.48219  -0.47840  -0.47087  -0.45795
 Alpha  occ. eigenvalues --   -0.45443  -0.45190  -0.44289  -0.43387  -0.42395
 Alpha  occ. eigenvalues --   -0.41983  -0.41194  -0.39191  -0.38594  -0.34840
 Alpha  occ. eigenvalues --   -0.27495
 Alpha virt. eigenvalues --    0.03265   0.05216   0.06182   0.07193   0.08004
 Alpha virt. eigenvalues --    0.09056   0.10166   0.11355   0.11946   0.12333
 Alpha virt. eigenvalues --    0.12449   0.13052   0.13985   0.14308   0.15272
 Alpha virt. eigenvalues --    0.15603   0.16778   0.17276   0.17750   0.18104
 Alpha virt. eigenvalues --    0.18671   0.19283   0.20288   0.21454   0.21487
 Alpha virt. eigenvalues --    0.22157   0.22432   0.24458   0.25687   0.26606
 Alpha virt. eigenvalues --    0.27704   0.28801   0.29208   0.29283   0.30072
 Alpha virt. eigenvalues --    0.32298   0.33707   0.34349   0.34849   0.36386
 Alpha virt. eigenvalues --    0.36476   0.37444   0.37495   0.38724   0.39332
 Alpha virt. eigenvalues --    0.39804   0.40803   0.41623   0.41904   0.43330
 Alpha virt. eigenvalues --    0.43791   0.43944   0.44508   0.45195   0.45885
 Alpha virt. eigenvalues --    0.46374   0.46639   0.47818   0.48512   0.48969
 Alpha virt. eigenvalues --    0.49498   0.49736   0.50796   0.51320   0.51788
 Alpha virt. eigenvalues --    0.52363   0.52490   0.53654   0.53772   0.54613
 Alpha virt. eigenvalues --    0.55962   0.57098   0.57660   0.59413   0.59891
 Alpha virt. eigenvalues --    0.61620   0.61936   0.62763   0.63889   0.65164
 Alpha virt. eigenvalues --    0.67280   0.67722   0.68310   0.69626   0.70246
 Alpha virt. eigenvalues --    0.72243   0.76779   0.77649   0.80286   0.81474
 Alpha virt. eigenvalues --    0.83907   0.85705   0.86585   0.87208   0.87783
 Alpha virt. eigenvalues --    0.89562   0.90245   0.90700   0.91552   0.92385
 Alpha virt. eigenvalues --    0.94026   0.94432   0.94942   0.97598   0.97939
 Alpha virt. eigenvalues --    0.99450   1.01106   1.03588   1.04716   1.06106
 Alpha virt. eigenvalues --    1.06595   1.07280   1.08001   1.10469   1.10735
 Alpha virt. eigenvalues --    1.13084   1.14268   1.16129   1.17228   1.18811
 Alpha virt. eigenvalues --    1.19565   1.20638   1.21838   1.23239   1.25444
 Alpha virt. eigenvalues --    1.27045   1.28769   1.29287   1.30882   1.33679
 Alpha virt. eigenvalues --    1.34212   1.34667   1.35692   1.36743   1.38520
 Alpha virt. eigenvalues --    1.40075   1.41368   1.45208   1.45732   1.47527
 Alpha virt. eigenvalues --    1.48388   1.49631   1.51308   1.53419   1.55748
 Alpha virt. eigenvalues --    1.56082   1.57288   1.58118   1.58280   1.59514
 Alpha virt. eigenvalues --    1.60030   1.60834   1.62366   1.62814   1.63380
 Alpha virt. eigenvalues --    1.64415   1.64956   1.66085   1.66894   1.67670
 Alpha virt. eigenvalues --    1.69146   1.70242   1.72066   1.74403   1.75995
 Alpha virt. eigenvalues --    1.76885   1.77799   1.79235   1.80427   1.82387
 Alpha virt. eigenvalues --    1.84671   1.85584   1.87812   1.92542   1.93481
 Alpha virt. eigenvalues --    1.93888   1.95668   1.96604   1.97276   1.99411
 Alpha virt. eigenvalues --    2.00774   2.02123   2.03055   2.04576   2.06334
 Alpha virt. eigenvalues --    2.07749   2.08438   2.08944   2.12512   2.13008
 Alpha virt. eigenvalues --    2.14427   2.17467   2.18046   2.18980   2.20709
 Alpha virt. eigenvalues --    2.22180   2.22695   2.23426   2.25521   2.27522
 Alpha virt. eigenvalues --    2.28636   2.29692   2.30244   2.32433   2.33537
 Alpha virt. eigenvalues --    2.34078   2.34940   2.35393   2.36208   2.36938
 Alpha virt. eigenvalues --    2.37941   2.38240   2.39926   2.40666   2.42714
 Alpha virt. eigenvalues --    2.43362   2.44307   2.44680   2.45290   2.48692
 Alpha virt. eigenvalues --    2.49543   2.50819   2.51750   2.54253   2.55447
 Alpha virt. eigenvalues --    2.56889   2.57337   2.58855   2.59862   2.61207
 Alpha virt. eigenvalues --    2.61668   2.62174   2.62536   2.64021   2.65634
 Alpha virt. eigenvalues --    2.65763   2.67387   2.68697   2.69113   2.70802
 Alpha virt. eigenvalues --    2.72337   2.72918   2.73955   2.74110   2.76594
 Alpha virt. eigenvalues --    2.77818   2.79485   2.79914   2.81307   2.83723
 Alpha virt. eigenvalues --    2.84690   2.85806   2.87029   2.88346   2.90587
 Alpha virt. eigenvalues --    2.91418   2.92648   2.94820   2.95551   2.99454
 Alpha virt. eigenvalues --    2.99864   3.01977   3.03319   3.05194   3.07243
 Alpha virt. eigenvalues --    3.09526   3.11916   3.13284   3.14241   3.14443
 Alpha virt. eigenvalues --    3.14925   3.16492   3.17147   3.19491   3.19964
 Alpha virt. eigenvalues --    3.21125   3.22036   3.22527   3.23892   3.24845
 Alpha virt. eigenvalues --    3.25518   3.26265   3.28491   3.28814   3.30518
 Alpha virt. eigenvalues --    3.31560   3.33140   3.33637   3.34752   3.35857
 Alpha virt. eigenvalues --    3.37438   3.37650   3.39186   3.39405   3.40432
 Alpha virt. eigenvalues --    3.41020   3.41616   3.42955   3.44119   3.47635
 Alpha virt. eigenvalues --    3.49202   3.50163   3.51550   3.52988   3.55165
 Alpha virt. eigenvalues --    3.56833   3.58482   3.60629   3.61805   3.64059
 Alpha virt. eigenvalues --    3.64393   3.68045   3.69405   3.71162   3.72364
 Alpha virt. eigenvalues --    3.76164   3.77953   3.79484   3.81857   3.83299
 Alpha virt. eigenvalues --    3.85353   3.86151   3.89665   3.91746   3.94034
 Alpha virt. eigenvalues --    3.96607   3.97147   3.97438   3.98236   3.99686
 Alpha virt. eigenvalues --    4.01021   4.02795   4.03397   4.05148   4.06111
 Alpha virt. eigenvalues --    4.08339   4.10437   4.11800   4.13306   4.16702
 Alpha virt. eigenvalues --    4.19409   4.21386   4.22520   4.24899   4.28175
 Alpha virt. eigenvalues --    4.28724   4.30503   4.33377   4.34394   4.36369
 Alpha virt. eigenvalues --    4.39241   4.40068   4.40992   4.42014   4.43094
 Alpha virt. eigenvalues --    4.44291   4.46228   4.48203   4.50588   4.54160
 Alpha virt. eigenvalues --    4.55124   4.56464   4.59459   4.62678   4.67601
 Alpha virt. eigenvalues --    4.69510   4.72807   4.74912   4.76338   4.81354
 Alpha virt. eigenvalues --    4.82883   4.84045   4.87853   4.92366   4.93306
 Alpha virt. eigenvalues --    4.97617   5.00920   5.04923   5.11198   5.13182
 Alpha virt. eigenvalues --    5.17412   5.17740   5.20771   5.21375   5.23819
 Alpha virt. eigenvalues --    5.28967   5.36337   5.47943   5.52014   5.53269
 Alpha virt. eigenvalues --    5.57645   5.69527   5.70852   5.75272   5.83903
 Alpha virt. eigenvalues --    6.00574   6.13531   6.34971   6.36081   6.37650
 Alpha virt. eigenvalues --    6.81001   6.96375   6.96826   7.62405  22.46694
 Alpha virt. eigenvalues --   22.50358  22.51904  22.52613  22.63636  22.77266
 Alpha virt. eigenvalues --   22.82653  22.85060  23.49878  32.28737  32.93487
 Alpha virt. eigenvalues --   44.19031
  Beta  occ. eigenvalues --  -19.63022 -14.83700 -14.76518 -10.61756 -10.60952
  Beta  occ. eigenvalues --  -10.60652 -10.59070 -10.57455 -10.55074 -10.54132
  Beta  occ. eigenvalues --  -10.54001 -10.53735  -1.18019  -1.02274  -0.99368
  Beta  occ. eigenvalues --   -0.92713  -0.87029  -0.81867  -0.80357  -0.79199
  Beta  occ. eigenvalues --   -0.76797  -0.68662  -0.63167  -0.61131  -0.57354
  Beta  occ. eigenvalues --   -0.54654  -0.53508  -0.53040  -0.51436  -0.50310
  Beta  occ. eigenvalues --   -0.48966  -0.47470  -0.47374  -0.46998  -0.45441
  Beta  occ. eigenvalues --   -0.44719  -0.44301  -0.43940  -0.43301  -0.41905
  Beta  occ. eigenvalues --   -0.41118  -0.39234  -0.38652  -0.37346  -0.33122
  Beta virt. eigenvalues --   -0.02331   0.03459   0.05245   0.06348   0.07215
  Beta virt. eigenvalues --    0.08109   0.09137   0.10337   0.11467   0.11979
  Beta virt. eigenvalues --    0.12306   0.12564   0.13164   0.14029   0.14376
  Beta virt. eigenvalues --    0.15295   0.15626   0.16976   0.17336   0.17777
  Beta virt. eigenvalues --    0.18225   0.18792   0.19466   0.20382   0.21491
  Beta virt. eigenvalues --    0.21719   0.22265   0.22513   0.24443   0.26386
  Beta virt. eigenvalues --    0.26742   0.27888   0.28860   0.29330   0.29680
  Beta virt. eigenvalues --    0.30643   0.32399   0.33786   0.34455   0.35043
  Beta virt. eigenvalues --    0.36523   0.36569   0.37513   0.37601   0.38821
  Beta virt. eigenvalues --    0.39371   0.39847   0.40903   0.41734   0.42044
  Beta virt. eigenvalues --    0.43472   0.44026   0.44078   0.44539   0.45212
  Beta virt. eigenvalues --    0.45890   0.46434   0.46708   0.47922   0.48565
  Beta virt. eigenvalues --    0.49045   0.49539   0.49917   0.50836   0.51549
  Beta virt. eigenvalues --    0.51858   0.52455   0.52641   0.53722   0.54001
  Beta virt. eigenvalues --    0.54706   0.56122   0.57416   0.57751   0.59699
  Beta virt. eigenvalues --    0.60433   0.61706   0.62047   0.62895   0.64210
  Beta virt. eigenvalues --    0.65242   0.67446   0.67899   0.68588   0.70015
  Beta virt. eigenvalues --    0.70245   0.72287   0.77024   0.77799   0.80444
  Beta virt. eigenvalues --    0.81623   0.84005   0.85822   0.86754   0.87248
  Beta virt. eigenvalues --    0.87945   0.89707   0.90412   0.90759   0.91659
  Beta virt. eigenvalues --    0.92556   0.94192   0.94575   0.95124   0.97836
  Beta virt. eigenvalues --    0.98115   0.99549   1.01294   1.03696   1.04859
  Beta virt. eigenvalues --    1.06327   1.06684   1.07393   1.08103   1.10592
  Beta virt. eigenvalues --    1.10767   1.13203   1.14363   1.16269   1.17517
  Beta virt. eigenvalues --    1.19071   1.19720   1.20935   1.21991   1.23374
  Beta virt. eigenvalues --    1.25535   1.27104   1.28864   1.29354   1.31110
  Beta virt. eigenvalues --    1.33776   1.34434   1.34784   1.35766   1.36954
  Beta virt. eigenvalues --    1.38600   1.40123   1.41453   1.45322   1.45922
  Beta virt. eigenvalues --    1.47795   1.48870   1.49822   1.51411   1.53559
  Beta virt. eigenvalues --    1.56053   1.56374   1.57572   1.58191   1.58408
  Beta virt. eigenvalues --    1.59670   1.60125   1.60952   1.62564   1.62865
  Beta virt. eigenvalues --    1.63490   1.64470   1.65097   1.66151   1.67145
  Beta virt. eigenvalues --    1.67736   1.69261   1.70300   1.72186   1.74522
  Beta virt. eigenvalues --    1.76213   1.77311   1.78252   1.79669   1.80452
  Beta virt. eigenvalues --    1.82587   1.84924   1.86051   1.88269   1.92650
  Beta virt. eigenvalues --    1.93639   1.94147   1.95764   1.96746   1.97469
  Beta virt. eigenvalues --    1.99700   2.00863   2.02267   2.03214   2.04704
  Beta virt. eigenvalues --    2.06571   2.07806   2.08551   2.09148   2.12703
  Beta virt. eigenvalues --    2.13099   2.14526   2.17693   2.18236   2.19092
  Beta virt. eigenvalues --    2.20904   2.22444   2.22902   2.23636   2.25754
  Beta virt. eigenvalues --    2.28116   2.28741   2.29864   2.30333   2.32456
  Beta virt. eigenvalues --    2.33698   2.34187   2.34992   2.35440   2.36283
  Beta virt. eigenvalues --    2.37039   2.38062   2.38258   2.40042   2.40765
  Beta virt. eigenvalues --    2.42959   2.43461   2.44383   2.44882   2.45405
  Beta virt. eigenvalues --    2.48852   2.49727   2.50885   2.51819   2.54357
  Beta virt. eigenvalues --    2.55506   2.56980   2.57636   2.59000   2.60070
  Beta virt. eigenvalues --    2.61302   2.61883   2.62293   2.62647   2.64330
  Beta virt. eigenvalues --    2.65796   2.66510   2.67494   2.68814   2.69218
  Beta virt. eigenvalues --    2.70932   2.72488   2.73002   2.74021   2.74473
  Beta virt. eigenvalues --    2.76912   2.78251   2.79754   2.80175   2.82200
  Beta virt. eigenvalues --    2.83983   2.85001   2.85948   2.87351   2.90543
  Beta virt. eigenvalues --    2.90805   2.91606   2.92927   2.94844   2.95590
  Beta virt. eigenvalues --    2.99522   3.00048   3.02117   3.03467   3.05418
  Beta virt. eigenvalues --    3.07351   3.09569   3.12022   3.13404   3.14407
  Beta virt. eigenvalues --    3.14523   3.15034   3.16600   3.17235   3.19592
  Beta virt. eigenvalues --    3.20056   3.21365   3.22217   3.22596   3.24013
  Beta virt. eigenvalues --    3.24932   3.25614   3.26619   3.28895   3.28924
  Beta virt. eigenvalues --    3.30765   3.31688   3.33188   3.33759   3.34844
  Beta virt. eigenvalues --    3.35925   3.37529   3.37727   3.39344   3.39506
  Beta virt. eigenvalues --    3.40502   3.41180   3.41693   3.43032   3.44165
  Beta virt. eigenvalues --    3.47646   3.49243   3.50134   3.51593   3.53075
  Beta virt. eigenvalues --    3.55244   3.56862   3.58622   3.60866   3.61990
  Beta virt. eigenvalues --    3.64166   3.64488   3.68120   3.69473   3.71235
  Beta virt. eigenvalues --    3.72449   3.76187   3.78053   3.79636   3.82023
  Beta virt. eigenvalues --    3.83388   3.85438   3.86190   3.89735   3.91872
  Beta virt. eigenvalues --    3.94087   3.96861   3.97173   3.97455   3.98642
  Beta virt. eigenvalues --    3.99804   4.01168   4.02828   4.03462   4.05228
  Beta virt. eigenvalues --    4.06246   4.08416   4.10509   4.11796   4.13410
  Beta virt. eigenvalues --    4.16811   4.19499   4.21508   4.22697   4.25085
  Beta virt. eigenvalues --    4.28388   4.28850   4.30679   4.33520   4.34487
  Beta virt. eigenvalues --    4.36372   4.39315   4.40085   4.41358   4.42008
  Beta virt. eigenvalues --    4.43173   4.44541   4.46496   4.48460   4.50625
  Beta virt. eigenvalues --    4.54198   4.55227   4.56618   4.59549   4.62745
  Beta virt. eigenvalues --    4.67787   4.69637   4.72854   4.75550   4.76772
  Beta virt. eigenvalues --    4.82766   4.83141   4.83980   4.88123   4.92776
  Beta virt. eigenvalues --    4.93677   4.97986   5.01257   5.04681   5.12147
  Beta virt. eigenvalues --    5.14941   5.17822   5.18169   5.22594   5.23293
  Beta virt. eigenvalues --    5.25731   5.30877   5.36538   5.49267   5.51956
  Beta virt. eigenvalues --    5.54474   5.57733   5.69570   5.70859   5.75292
  Beta virt. eigenvalues --    5.84938   6.00605   6.16063   6.34927   6.42949
  Beta virt. eigenvalues --    6.43490   6.85034   6.96565   6.99238   7.62293
  Beta virt. eigenvalues --   22.46720  22.50386  22.51931  22.52632  22.63639
  Beta virt. eigenvalues --   22.77218  22.82609  22.85009  23.49885  32.28737
  Beta virt. eigenvalues --   32.93616  44.19108
          Condensed to atoms (all electrons):
               1          2          3          4          5          6
     1  O    8.238623   0.184655  -0.041582   0.011785   0.006172  -0.043174
     2  N    0.184655   6.579694   0.185518  -0.065100  -0.015836   0.207463
     3  C   -0.041582   0.185518   5.443081   0.075222   0.055841  -0.057125
     4  C    0.011785  -0.065100   0.075222   5.579607   0.021686   0.054523
     5  C    0.006172  -0.015836   0.055841   0.021686   5.663095   0.016650
     6  C   -0.043174   0.207463  -0.057125   0.054523   0.016650   5.435975
     7  C    0.005776  -0.072207  -0.001763   0.016544  -0.082729   0.264394
     8  C   -0.009079  -0.053464  -0.019156   0.007518  -0.079248   0.317028
     9  H   -0.000306   0.003421   0.005523  -0.043189   0.430443  -0.035251
    10  C    0.000159  -0.004584   0.013419  -0.004417   0.092369   0.027031
    11  H    0.000516   0.008602   0.000676  -0.000634  -0.005134  -0.044219
    12  H    0.008964  -0.007442   0.000971  -0.001767   0.018646  -0.036056
    13  H   -0.001788  -0.001858  -0.001034   0.000565  -0.025064  -0.001953
    14  H    0.008956  -0.004596   0.001337  -0.002657   0.017697  -0.045713
    15  H    0.000018   0.008676   0.000382  -0.000328  -0.010787  -0.033516
    16  H   -0.000376  -0.006855   0.000292   0.006056  -0.011216  -0.015343
    17  C    0.006358  -0.052421   0.265283  -0.078711   0.017357  -0.011651
    18  C   -0.012680  -0.057326   0.317530  -0.086299   0.017880  -0.019134
    19  H   -0.001984  -0.005256   0.003584  -0.018980   0.000560  -0.000990
    20  H    0.000445   0.008802  -0.043730  -0.007738   0.000247   0.000474
    21  H   -0.000290  -0.005209  -0.008692  -0.012832   0.004157  -0.003883
    22  H    0.009002  -0.006516  -0.032872   0.016276  -0.003421   0.002367
    23  N    0.000010  -0.000881   0.001276   0.001995  -0.038519   0.001410
    24  H   -0.000264   0.005192  -0.035388   0.425147  -0.026539   0.000849
    25  H   -0.000258   0.001257  -0.042936   0.435846  -0.043861  -0.000508
    26  H    0.008553  -0.007783  -0.038513   0.016157  -0.002112   0.001559
    27  H    0.000084   0.008722  -0.041512  -0.010247  -0.000178   0.001171
               7          8          9         10         11         12
     1  O    0.005776  -0.009079  -0.000306   0.000159   0.000516   0.008964
     2  N   -0.072207  -0.053464   0.003421  -0.004584   0.008602  -0.007442
     3  C   -0.001763  -0.019156   0.005523   0.013419   0.000676   0.000971
     4  C    0.016544   0.007518  -0.043189  -0.004417  -0.000634  -0.001767
     5  C   -0.082729  -0.079248   0.430443   0.092369  -0.005134   0.018646
     6  C    0.264394   0.317028  -0.035251   0.027031  -0.044219  -0.036056
     7  C    5.234111  -0.127225   0.000380  -0.014132   0.415192   0.410615
     8  C   -0.127225   5.194251  -0.003075   0.005689  -0.008468  -0.011647
     9  H    0.000380  -0.003075   0.486883  -0.029096   0.001459  -0.000411
    10  C   -0.014132   0.005689  -0.029096   5.253643  -0.002869  -0.000777
    11  H    0.415192  -0.008468   0.001459  -0.002869   0.521827  -0.024089
    12  H    0.410615  -0.011647  -0.000411  -0.000777  -0.024089   0.480762
    13  H    0.389256   0.011714   0.000180   0.008887  -0.020550  -0.018442
    14  H   -0.013429   0.420878  -0.000103  -0.000755   0.000532   0.003060
    15  H   -0.010909   0.416818   0.000882   0.000175   0.001540  -0.000178
    16  H    0.014495   0.382492  -0.000862   0.000163  -0.000218   0.000068
    17  C   -0.004630   0.006523   0.000022   0.001289   0.000056  -0.000003
    18  C    0.005402  -0.003086  -0.000394  -0.010807  -0.000060   0.000238
    19  H    0.000077  -0.001878  -0.000015  -0.000064  -0.000004   0.000008
    20  H    0.000060  -0.000019   0.000016  -0.000138  -0.000001   0.000000
    21  H   -0.000799   0.000091   0.000139   0.005329   0.000064  -0.000046
    22  H    0.000002   0.000012   0.000033   0.000515  -0.000001  -0.000057
    23  N   -0.002021  -0.000457  -0.000333   0.925341   0.000175   0.000015
    24  H   -0.000117   0.000191  -0.001728  -0.008674   0.000020   0.000022
    25  H   -0.000128  -0.003427  -0.004440   0.001391  -0.000044   0.000046
    26  H   -0.000025   0.000259   0.000019   0.000045  -0.000001  -0.000021
    27  H   -0.000013   0.000047  -0.000001  -0.000224   0.000001   0.000000
              13         14         15         16         17         18
     1  O   -0.001788   0.008956   0.000018  -0.000376   0.006358  -0.012680
     2  N   -0.001858  -0.004596   0.008676  -0.006855  -0.052421  -0.057326
     3  C   -0.001034   0.001337   0.000382   0.000292   0.265283   0.317530
     4  C    0.000565  -0.002657  -0.000328   0.006056  -0.078711  -0.086299
     5  C   -0.025064   0.017697  -0.010787  -0.011216   0.017357   0.017880
     6  C   -0.001953  -0.045713  -0.033516  -0.015343  -0.011651  -0.019134
     7  C    0.389256  -0.013429  -0.010909   0.014495  -0.004630   0.005402
     8  C    0.011714   0.420878   0.416818   0.382492   0.006523  -0.003086
     9  H    0.000180  -0.000103   0.000882  -0.000862   0.000022  -0.000394
    10  C    0.008887  -0.000755   0.000175   0.000163   0.001289  -0.010807
    11  H   -0.020550   0.000532   0.001540  -0.000218   0.000056  -0.000060
    12  H   -0.018442   0.003060  -0.000178   0.000068  -0.000003   0.000238
    13  H    0.489960  -0.000108  -0.000215  -0.000335   0.000156  -0.000917
    14  H   -0.000108   0.469370  -0.020177  -0.019650   0.000439   0.000007
    15  H   -0.000215  -0.020177   0.516740  -0.027518   0.000002   0.000038
    16  H   -0.000335  -0.019650  -0.027518   0.537878  -0.002300   0.000255
    17  C    0.000156   0.000439   0.000002  -0.002300   5.213429  -0.127578
    18  C   -0.000917   0.000007   0.000038   0.000255  -0.127578   5.196145
    19  H   -0.000008  -0.000121   0.000097   0.000319   0.371888   0.014145
    20  H   -0.000003  -0.000004   0.000004   0.000101   0.421700  -0.010309
    21  H   -0.000081   0.000001  -0.000004  -0.000001   0.012565   0.389828
    22  H   -0.000026  -0.000024   0.000001   0.000001  -0.014735   0.407637
    23  N   -0.000686  -0.000001   0.000008   0.000015  -0.000084  -0.003356
    24  H   -0.000038   0.000042  -0.000019   0.000184   0.001624  -0.002895
    25  H   -0.000028   0.000165   0.000253  -0.001932  -0.008184   0.005610
    26  H    0.000002  -0.000070  -0.000001  -0.000044   0.417682  -0.011277
    27  H    0.000038   0.000001  -0.000003  -0.000004  -0.009063   0.417555
              19         20         21         22         23         24
     1  O   -0.001984   0.000445  -0.000290   0.009002   0.000010  -0.000264
     2  N   -0.005256   0.008802  -0.005209  -0.006516  -0.000881   0.005192
     3  C    0.003584  -0.043730  -0.008692  -0.032872   0.001276  -0.035388
     4  C   -0.018980  -0.007738  -0.012832   0.016276   0.001995   0.425147
     5  C    0.000560   0.000247   0.004157  -0.003421  -0.038519  -0.026539
     6  C   -0.000990   0.000474  -0.003883   0.002367   0.001410   0.000849
     7  C    0.000077   0.000060  -0.000799   0.000002  -0.002021  -0.000117
     8  C   -0.001878  -0.000019   0.000091   0.000012  -0.000457   0.000191
     9  H   -0.000015   0.000016   0.000139   0.000033  -0.000333  -0.001728
    10  C   -0.000064  -0.000138   0.005329   0.000515   0.925341  -0.008674
    11  H   -0.000004  -0.000001   0.000064  -0.000001   0.000175   0.000020
    12  H    0.000008   0.000000  -0.000046  -0.000057   0.000015   0.000022
    13  H   -0.000008  -0.000003  -0.000081  -0.000026  -0.000686  -0.000038
    14  H   -0.000121  -0.000004   0.000001  -0.000024  -0.000001   0.000042
    15  H    0.000097   0.000004  -0.000004   0.000001   0.000008  -0.000019
    16  H    0.000319   0.000101  -0.000001   0.000001   0.000015   0.000184
    17  C    0.371888   0.421700   0.012565  -0.014735  -0.000084   0.001624
    18  C    0.014145  -0.010309   0.389828   0.407637  -0.003356  -0.002895
    19  H    0.539069  -0.026761  -0.000332  -0.000114   0.000004   0.000243
    20  H   -0.026761   0.527942  -0.000180   0.000528  -0.000001   0.000939
[...]
 7530,0.00002164,0.00004754,0.00002209,-0.00004423,0.00015461,-0.097165
 09,-0.20042945,0.09378357,-0.00002346,0.00031240,-0.00009870,-0.010643
 10,-0.01669115,0.01225465,0.10489856,0.21510363,0.00098398,-0.00018372
 ,0.00045000,0.00126116,0.00058550,-0.00018417,0.00183769,0.00697291,-0
 .00494635,-0.00029776,-0.00020539,0.00036465,0.00013903,0.00005261,-0.
 00009867,-0.00010240,-0.00009466,-0.00052603,0.00017894,0.00004498,0.0
 0015926,0.00008219,-0.00002725,-0.00017283,-0.00000284,-0.00003957,0.0
 0001980,-0.00001733,0.00009369,0.00003304,0.00005883,0.00001221,-0.000
 04739,-0.00002488,-0.00001905,0.00000281,-0.00001721,0.00000460,0.0000
 0768,0.00002209,0.00000837,-0.00002991,-0.00004939,0.00002279,0.000068
 69,-0.00001054,-0.00004372,0.00012356,0.05925720,0.09217434,-0.1039734
 1,-0.00023209,0.00055395,-0.00000875,-0.01088281,-0.01507913,0.0105063
 5,-0.06649732,-0.10180702,0.10848120,0.00003111,0.00019951,-0.00005175
 ,0.00106858,0.00034130,-0.00010859,0.00402872,-0.00262908,-0.00176245,
 0.00070320,0.00018366,0.00006024,0.00026552,0.00008294,0.00026826,0.00
 005030,0.00008276,0.00003701,0.00001292,0.00002168,0.00002131,-0.00001
 366,-0.00000811,0.00000073,-0.00000578,0.00009158,0.00001536,-0.001557
 22,-0.00033939,-0.00096475,-0.00000527,-0.00000434,-0.00001715,-0.0000
 0377,0.00001389,0.00000740,0.00004679,0.00002558,0.00004790,-0.0000065
 3,0.00000021,0.00000231,0.00000004,-0.00000496,0.00000135,-0.00000340,
 0.00000024,-0.00000403,0.00063365,-0.00056400,-0.00039385,-0.27106972,
 0.08486828,0.06486700,0.00039806,-0.00008221,-0.00007306,0.00009604,-0
 .00003619,-0.00020278,0.29142366,-0.00020452,-0.00051707,0.00027153,0.
 00075436,0.00231390,0.00050966,0.02231750,-0.00963161,-0.00571812,0.00
 010063,0.00064794,0.00103030,-0.00021110,-0.00015140,-0.00039550,-0.00
 001775,-0.00037507,-0.00024022,0.00003811,-0.00010729,-0.00011705,-0.0
 0001871,0.00001877,-0.00003950,-0.00005805,0.00001236,0.00004316,-0.00
 023796,-0.00016034,-0.00039909,-0.00000204,0.00003701,0.00005312,0.000
 00022,0.00002210,0.00001642,-0.00012848,-0.00000784,0.00007268,0.00000
 546,0.00001090,-0.00000259,-0.00000413,-0.00000112,0.00001204,0.000005
 79,0.00001021,0.00005104,-0.00151504,-0.00338180,-0.00309172,0.0825576
 0,-0.07932836,-0.02397314,0.00134612,-0.00013470,-0.00080478,0.0001853
 8,0.00021915,-0.00021750,-0.09135328,0.08451297,-0.00008756,0.00022173
 ,-0.00009632,-0.00021237,0.00154920,0.00047409,0.02104411,-0.00670695,
 -0.00742606,0.00080343,0.00008152,0.00124099,-0.00025981,-0.00037760,-
 0.00024566,0.00013245,-0.00042050,0.00018627,-0.00011547,0.00009487,-0
 .00003372,-0.00005401,0.00006439,-0.00009897,-0.00004642,0.00005968,0.
 00001783,-0.00058468,-0.00066936,-0.00046796,-0.00001790,-0.00003990,-
 0.00001250,0.00001355,0.00002524,-0.00001436,0.00004122,-0.00002625,0.
 00004357,0.00000509,0.00004142,0.00000369,-0.00001254,-0.00001688,0.00
 000563,0.00003566,-0.00001880,0.00002178,-0.00138760,-0.00376677,-0.00
 276258,0.06229252,-0.02394026,-0.06577329,0.00135446,-0.00076952,-0.00
 013904,-0.00040771,0.00005623,0.00017151,-0.06924116,0.03002875,0.0699
 0823,0.00028923,-0.00019185,0.00089440,-0.00039897,0.00094040,-0.00079
 469,-0.00301388,-0.00021174,-0.00287403,0.00124310,-0.00068554,-0.0004
 7982,0.00025807,0.00033545,0.00027795,-0.00015705,0.00010809,-0.000207
 43,0.00008796,-0.00007951,0.00003207,0.00011991,-0.00002554,0.00005049
 ,0.00004560,0.00000136,0.00000239,-0.00016879,0.00033505,0.00023048,0.
 00002257,0.00003437,0.00002508,-0.00002289,-0.00004240,0.00000093,-0.0
 0007000,0.00003452,-0.00003511,-0.00000367,-0.00004030,-0.00001697,0.0
 0000486,0.00002963,0.00002880,-0.00002098,0.00001106,0.00002456,0.0001
 8534,-0.00014332,0.00085310,-0.10714006,0.04540943,-0.10279377,-0.0000
 6333,-0.00010023,-0.00004098,0.00000654,-0.00001483,0.00010635,-0.0118
 4222,0.00920368,-0.02411793,0.11188021,0.00065502,0.00009196,0.0004758
 8,-0.00018124,0.00206494,-0.00017994,-0.01231367,0.00742017,-0.0214636
 0,0.00033673,-0.00367044,-0.00335461,0.00005655,0.00008913,-0.00016457
 ,-0.00021523,0.00015841,-0.00005200,0.00004995,-0.00002938,0.00007017,
 0.00015442,0.00002352,0.00002078,-0.00008410,-0.00004287,0.00008282,0.
 00010236,-0.00022434,-0.00008425,0.00002985,0.00000646,-0.00000841,-0.
 00004444,-0.00002347,0.00001613,-0.00000613,0.00001217,0.00001197,-0.0
 0002256,-0.00003661,-0.00001447,0.00001356,0.00004285,0.00004394,-0.00
 001875,0.00002781,0.00002016,-0.00091168,0.00099552,0.00042857,0.04645
 825,-0.08087197,0.08113416,-0.00011673,0.00001905,0.00019913,0.0001168
 7,-0.00003498,0.00003981,0.00345921,-0.00413348,0.00834273,-0.04947849
 ,0.08552502,0.00099042,-0.00022478,0.00110646,0.00034732,0.00181009,-0
 .00033202,-0.01131095,0.00743197,-0.01970759,0.00077148,-0.00323957,-0
 .00174194,0.00000091,-0.00008455,-0.00047094,-0.00029058,0.00022064,-0
 .00003367,0.00005133,-0.00005483,0.00002717,0.00014267,0.00002011,0.00
 004837,-0.00019871,-0.00003167,0.00010670,0.00006885,-0.00020770,-0.00
 011744,0.00001131,0.00000773,-0.00000299,-0.00002516,-0.00001782,0.000
 03130,-0.00001715,-0.00000383,0.00000313,-0.00000880,-0.00004425,0.000
 00679,0.00000423,0.00002360,0.00003447,-0.00003386,0.00003600,0.000017
 90,-0.00071840,0.00107013,0.00059113,-0.10252077,0.07776494,-0.2259684
 3,0.00010065,-0.00008554,0.00047659,-0.00005722,-0.00012598,-0.0000149
 8,0.00434878,-0.00348594,0.00872143,0.11319805,-0.08285341,0.24638305,
 -0.00018628,0.00026269,-0.00035949,0.00017378,0.00016044,0.00012858,0.
 00002184,-0.00021435,0.00009984,0.00297995,-0.00117896,-0.00143273,0.0
 1343765,0.00817187,0.00699035,0.00055624,-0.00187783,0.00305547,-0.000
 15105,-0.00050887,0.00036824,-0.00046367,0.00068835,-0.00107601,-0.003
 10819,0.00283739,0.00078703,-0.38016680,0.44799474,0.34370934,0.000075
 41,0.00040411,0.00016661,0.00030872,-0.00011967,-0.00029243,-0.0002711
 5,-0.00006133,-0.00037264,-0.00006426,0.00028736,0.00022413,0.00003781
 ,-0.00006694,0.00004378,0.00009163,-0.00012529,-0.00007462,0.00005817,
 0.00010092,-0.00009260,0.00052782,-0.00033426,-0.00067537,-0.00000853,
 0.00003805,0.00003908,0.00002266,-0.00002625,-0.00000265,-0.00085774,0
 .00020470,0.00022080,-0.00027376,0.00004477,0.00009494,0.36746613,0.00
 066252,-0.00007962,0.00049956,-0.00019548,-0.00023769,-0.00009287,0.00
 010944,-0.00026750,-0.00070421,-0.00220934,-0.00442493,-0.00219048,0.0
 0720467,0.00887231,-0.00783377,-0.00194624,0.00384596,-0.00019168,0.00
 048043,0.00007598,0.00061261,0.00009568,0.00008513,0.00012310,0.001719
 72,-0.00012123,0.00056868,0.44881850,-0.62604875,-0.45150538,0.0000202
 1,0.00007219,-0.00002085,-0.00005548,-0.00006658,-0.00004268,-0.000042
 31,-0.00073863,-0.00022494,0.00001078,-0.00004537,-0.00004122,0.000011
 13,0.00004626,0.00001378,-0.00002576,0.00006369,-0.00004443,0.00022883
 ,0.00008270,0.00054381,0.00015506,-0.00029637,-0.00049001,-0.00010393,
 0.00010688,0.00006430,0.00000340,0.00001860,-0.00006426,-0.00012771,0.
 00003055,0.00040108,-0.00028046,0.00018557,0.00015275,-0.45673199,0.61
 771153,0.00055505,-0.00011702,0.00062362,-0.00041301,-0.00047386,0.000
 25036,0.00013524,-0.00026916,-0.00092818,-0.00246992,-0.00169098,0.000
 63663,0.00785619,-0.00973698,0.01283262,0.00156056,0.00160468,-0.00657
 248,0.00011334,0.00048000,-0.00152451,0.00059622,-0.00099180,0.0017128
 6,-0.00092066,0.00163683,0.00213728,0.34445836,-0.45171195,-0.38318641
 ,-0.00002048,-0.00000660,0.00006315,-0.00025853,0.00027921,0.00053872,
 -0.00007036,0.00051798,0.00075845,0.00005040,-0.00048479,-0.00040425,-
 0.00003969,0.00003993,-0.00006156,-0.00006945,0.00012225,0.00006905,0.
 00020101,0.00008082,0.00046283,0.00031605,-0.00058616,-0.00040417,-0.0
 0008619,0.00009599,0.00006464,-0.00001293,0.00000553,-0.00004283,-0.00
 024889,0.00037723,0.00016113,-0.00020076,0.00010211,0.00013817,-0.3512
 1134,0.46037734,0.37255015,0.00076598,0.00139194,-0.00108544,-0.003045
 54,-0.00057959,-0.00133518,0.00056098,0.01906063,-0.00218317,-0.045701
 37,0.01055686,-0.00211626,0.00000320,-0.03005174,0.00640208,-0.0061039
 1,-0.00027461,0.00046733,0.00096237,-0.00128228,0.00061018,-0.00001041
 ,0.00017304,0.00041150,-0.00023109,-0.00009041,-0.00019604,0.00147071,
 -0.00166731,-0.00006000,0.00008618,0.00003975,-0.00009094,-0.00037485,
 -0.00010216,0.00045510,0.00000151,0.00003000,0.00004565,0.00012337,-0.
 00010164,-0.00011724,0.00005706,0.00005647,0.00004567,0.00008072,-0.00
 002146,-0.00017052,0.00014236,0.00032482,-0.00076148,0.00115566,0.0005
 5813,0.00078783,0.00008474,-0.00018013,-0.00017959,-0.00033268,-0.0002
 1206,0.00018968,0.00007515,-0.00022965,-0.00000652,0.00001806,-0.00001
 134,0.00021350,-0.00014207,0.00054723,-0.00014366,0.05123304,0.0000041
 5,0.00003737,0.00028345,0.00065081,0.00014528,-0.00011279,-0.00061167,
 -0.00443733,-0.00005140,0.00728356,-0.31779399,0.04547736,0.00103791,-
 0.00722483,0.00085858,-0.00121122,0.00053206,-0.00007175,0.00031652,-0
 .00023590,-0.00000491,0.00002706,0.00016920,-0.00011286,-0.00032695,-0
 .00027829,0.00018057,0.00067098,0.00071670,-0.00050725,-0.00001458,-0.
 00000850,-0.00001510,-0.00008223,0.00002646,0.00009888,-0.00001545,0.0
 0000124,0.00005136,-0.00001692,0.00000069,0.00003146,-0.00003819,-0.00
 004473,0.00005994,-0.00004975,0.00009750,0.00013044,0.00017033,-0.0003
 3459,0.00060123,-0.00086090,0.00082047,-0.00162732,-0.00012545,0.00016
 435,0.00005366,0.00025793,-0.00005460,-0.00000980,0.00014122,0.0001626
 4,0.00041042,0.00001106,0.00002701,-0.00026605,-0.00010515,0.00024822,
 0.00016196,-0.00766217,0.33949713,0.00079531,0.00143793,-0.00116586,-0
 .00319658,0.00164568,-0.00319281,0.00150210,0.02265079,-0.00378160,-0.
 00200607,0.04073913,-0.05387646,0.00103295,0.00651923,-0.00295966,0.00
 102884,0.00033970,-0.00073414,-0.00016143,0.00039561,0.00010128,0.0002
 3878,-0.00018117,-0.00031117,0.00010397,-0.00013770,-0.00005740,0.0001
 5000,0.00126579,0.00065031,0.00004639,0.00001376,-0.00001575,0.0000074
 7,0.00005490,-0.00012524,-0.00003264,-0.00000037,-0.00000126,-0.000140
 36,-0.00001159,0.00006274,-0.00008592,-0.00003704,0.00016038,-0.000202
 69,0.00012546,0.00030206,0.00005991,-0.00016328,-0.00085774,0.00028827
 ,0.00097350,0.00118563,-0.00004417,0.00009598,0.00008307,-0.00013085,-
 0.00002017,0.00020415,0.00040177,-0.00004416,-0.00029167,0.00014634,-0
 .00008279,0.00028185,-0.00019753,-0.00022438,-0.00008767,0.00128707,-0
 .04829923,0.05889408,0.00019987,0.00042191,-0.00003805,-0.00061760,-0.
 00078018,0.00008966,0.00479833,-0.00942920,-0.01714116,-0.07081807,0.0
 3919304,0.07204383,-0.01388524,0.01393054,0.02387049,0.00004146,0.0007
 4433,-0.00011723,0.00009067,-0.00025283,0.00004257,-0.00005555,0.00003
 199,0.00020910,0.00121082,0.00098976,-0.00008392,-0.00475082,-0.003817
 95,0.00190468,0.00002070,0.00005955,-0.00000254,-0.00000940,-0.0001213
 9,0.00002755,0.00001356,0.00003309,-0.00016046,0.00013497,-0.00002600,
 -0.00020614,0.00000604,0.00006109,-0.00002339,0.00035929,-0.00053534,-
 0.00015645,0.00039823,-0.00080142,-0.00196803,-0.00201208,0.00172956,-
 0.00331520,0.00004850,0.00051133,-0.00013646,-0.00002939,-0.00035827,0
 .00014553,-0.00006250,0.00012859,0.00009933,-0.00018210,-0.00091727,-0
 .00086870,0.00007163,0.00150856,0.00043975,0.00001339,0.00019969,-0.00
 014486,0.08504695,0.00004663,-0.00034518,0.00001452,0.00039178,-0.0000
 0307,0.00006551,-0.00262958,0.00271861,0.00624509,0.04025919,-0.108483
 84,-0.10393338,-0.00463901,0.00491222,0.00985055,0.00026513,0.00052618
 ,-0.00000395,-0.00002134,-0.00015914,-0.00007340,-0.00036761,-0.000700
 41,-0.00014323,0.00055411,0.00105233,-0.00018003,-0.00149998,-0.001131
 22,0.00071188,0.00000669,0.00001125,0.00000201,0.00000948,-0.00005032,
 0.00000338,0.00003700,0.00000810,-0.00006003,0.00003380,-0.00003455,-0
 .00003758,-0.00001048,-0.00008074,0.00007092,-0.00061267,-0.00166453,0
 .00048225,0.00028863,0.00106990,0.00091020,0.00019040,0.00038609,-0.00
 007865,-0.00010383,-0.00010450,0.00013270,-0.00015467,-0.00014431,-0.0
 0023734,-0.00007519,0.00001617,0.00027728,-0.00008053,0.00024426,-0.00
 004822,0.00011909,0.00090364,0.00016753,0.01029139,-0.01273035,-0.0268
 2096,-0.04243850,0.11358643,0.00009943,0.00073989,-0.00009740,-0.00096
 579,-0.00034046,-0.00019178,0.00592556,-0.01242207,-0.02033559,0.07202
 439,-0.10177952,-0.23366688,0.00103699,-0.00272857,-0.00431601,0.00017
 117,-0.00053476,-0.00067891,0.00007056,0.00021445,0.00005299,0.0003780
 0,-0.00027004,-0.00054758,-0.00021366,0.00016768,0.00102558,0.00057570
 ,0.00027209,0.00052409,0.00003738,0.00000290,-0.00001018,0.00000002,0.
 00001861,-0.00004878,-0.00005653,0.00001183,0.00006915,-0.00019201,-0.
 00007356,0.00014744,-0.00018687,-0.00006402,0.00022560,-0.00028525,0.0
 0017870,0.00069205,0.00211493,-0.00118627,0.00121765,-0.00212277,0.002
 83571,-0.00242692,-0.00071560,0.00084431,0.00039129,-0.00045104,-0.000
 02009,-0.00002647,0.00008389,0.00015487,0.00021568,-0.00024553,-0.0010
 4613,-0.00077229,-0.00016493,0.00027679,0.00011362,-0.00236833,0.00226
 957,0.00553538,-0.07485485,0.11238643,0.25246253,0.00147109,-0.0004963
 5,0.00086654,0.00082216,0.00132476,-0.00189424,-0.01807872,0.00911459,
 -0.02489441,-0.00411890,0.00108872,0.00280171,-0.00077233,0.00049244,-
 0.00101850,-0.00033786,0.00023593,-0.00038907,0.00015899,-0.00006059,0
 .00013354,0.00017404,-0.00003521,0.00003216,-0.00033848,-0.00016294,0.
 00015001,0.00003100,-0.00027519,-0.00015479,0.00006226,0.00002642,-0.0
 0001116,-0.00006153,-0.00005160,0.00004036,-0.00003538,0.00001219,-0.0
 0000596,-0.00003080,-0.00007734,-0.00002059,0.00001538,0.00003695,0.00
 005568,-0.00003974,0.00004078,0.00003713,-0.12256920,0.04199750,-0.115
 10167,0.00107677,-0.00103171,-0.00112033,-0.00166147,0.00038289,-0.001
 21384,0.00946450,-0.00402159,0.01378688,0.00015808,-0.00037074,0.00018
 549,0.00025634,0.00037891,0.00077035,-0.00003278,0.00014659,0.00014355
 ,-0.00051805,0.00022330,-0.00029072,-0.00006295,-0.00005456,0.00037450
 ,0.13497837,-0.00072413,-0.00042710,-0.00023872,-0.00024992,-0.0003171
 1,0.00016677,0.00563662,-0.00411042,0.00806197,0.00144348,0.00066603,-
 0.00152709,0.00029343,-0.00005464,0.00064474,-0.00011113,-0.00013707,0
 .00002219,-0.00002281,0.00004916,0.00004467,0.00007690,0.00002227,-0.0
 0016114,0.00021306,0.00005515,-0.00005874,-0.00009513,0.00009909,0.000
 11253,0.00001922,0.00000438,-0.00000229,-0.00000978,-0.00000079,-0.000
 01294,-0.00000415,-0.00000230,0.00000655,-0.00003320,-0.00001294,0.000
 00498,-0.00003063,-0.00000935,0.00007381,0.00005632,0.00004124,0.00008
 192,0.04304284,-0.07027809,0.06257945,-0.00009359,0.00023297,0.0007486
 9,-0.01416929,0.00811918,-0.02019725,0.01386100,-0.00662297,0.01817664
 ,-0.00025047,0.00011786,-0.00012477,0.00034780,-0.00004555,-0.00056507
 ,0.00000099,-0.00007498,-0.00006590,-0.00028201,0.00005845,0.00009656,
 -0.00006404,0.00004268,0.00019721,-0.04887653,0.07273357,0.00146015,-0
 .00013785,-0.00061177,-0.00102554,0.00075715,-0.00023152,0.00499723,-0
 .00417517,0.00810562,0.00181500,-0.00044675,-0.00050428,0.00041350,0.0
 0011492,0.00040946,0.00004411,0.00007537,0.00018885,-0.00003152,-0.000
 00484,-0.00001513,0.00002568,0.00004742,-0.00009315,0.00009679,0.00008
 942,-0.00004930,-0.00014240,0.00004566,0.00008642,-0.00001309,-0.00001
 246,0.00000821,0.00000766,0.00000272,0.00000114,-0.00000183,-0.0000030
 9,0.00000325,-0.00001865,-0.00000473,0.00002582,-0.00002563,-0.0000126
 3,0.00002647,0.00003343,0.00003349,0.00004706,-0.11858421,0.06284701,-
 0.22321778,0.00036356,0.00002929,0.00091945,-0.00933977,0.00635357,-0.
 01452138,-0.00686252,0.00243549,-0.01035027,0.00000537,0.00001129,0.00
 011730,0.00027854,-0.00006946,-0.00001580,-0.00000610,-0.00001645,-0.0
 0001780,-0.00002663,0.00004117,0.00010624,0.00020697,0.00014456,0.0003
 5844,0.12655765,-0.06815213,0.23923518,0.00034108,-0.00016824,0.000432
 28,0.00074988,-0.00020203,-0.00130301,-0.00306197,-0.00180172,0.001016
 53,0.00014953,-0.00029188,0.00048475,-0.00012579,0.00021831,0.00021366
 ,0.00026478,0.00012970,0.00021228,-0.00006603,0.00006224,0.00001286,-0
 .00006212,-0.00001350,-0.00002557,0.00002330,-0.00000886,-0.00002221,-
 0.00009730,0.00005780,0.00005100,-0.00001690,-0.00002797,-0.00001056,0
 .00001861,0.00000087,-0.00001771,0.00005178,0.00001025,-0.00002777,0.0
 0001480,0.00001781,0.00000596,-0.00002013,-0.00002044,-0.00002048,0.00
 001762,-0.00000672,-0.00000981,0.00004496,0.00055623,0.00044192,-0.125
 15792,-0.10889581,0.05680221,-0.00001652,0.00006176,-0.00021880,0.0003
 1413,0.00045860,0.00029045,-0.01356400,-0.02249671,0.01032359,0.008939
 90,0.01246519,-0.00506450,-0.00010315,-0.00000406,-0.00025983,-0.00037
 451,0.00012610,-0.00045534,0.00003130,0.00019462,-0.00006936,-0.000010
 79,0.00002517,-0.00022775,0.13171547,-0.00014619,0.00015347,0.00008811
 ,-0.00191803,-0.00372558,-0.00366415,-0.01201362,-0.01716974,0.0110650
 7,0.00073142,0.00021437,0.00058133,0.00009811,0.00006833,0.00011143,0.
 00082701,-0.00076135,0.00057166,-0.00011773,-0.00001465,-0.00021808,-0
 .00034041,-0.00002300,-0.00010158,0.00001214,0.00008281,-0.00004034,0.
 00005857,-0.00005857,-0.00003776,-0.00007262,-0.00002113,0.00005153,0.
 00005207,0.00003516,-0.00000314,-0.00000050,-0.00002800,0.00002099,0.0
 0000944,0.00005389,0.00003397,-0.00001530,-0.00009639,-0.00012809,0.00
 001868,0.00000161,-0.00003644,-0.00051671,0.00078301,0.00105444,-0.107
 32675,-0.19754199,0.07781970,0.00009635,0.00051113,-0.00004352,0.00070
 963,0.00001015,-0.00071399,0.00596287,0.00979754,-0.00477698,-0.005427
 16,-0.00782077,0.00280126,0.00003539,0.00005244,0.00008581,-0.00028171
 ,0.00043832,-0.00033122,-0.00000063,0.00015431,-0.00010555,0.00001238,
 -0.00014871,0.00000703,0.11955331,0.21505336,0.00050452,-0.00057505,0.
 00104456,-0.00183089,-0.00307950,-0.00294906,-0.01200662,-0.01699296,0
 .00711506,0.00031229,-0.00010346,0.00134694,0.00004521,-0.00001050,0.0
 0002798,-0.00006096,-0.00052879,0.00061914,-0.00008274,-0.00007641,-0.
 00020783,-0.00000157,0.00002461,0.00000581,-0.00000169,0.00001755,-0.0
 0001155,0.00009019,-0.00005886,-0.00010437,-0.00004627,-0.00000851,0.0
 0006661,0.00001196,0.00001066,-0.00000167,-0.00003929,-0.00000155,0.00
 001173,0.00000013,0.00001597,0.00000844,-0.00000743,-0.00000419,-0.000
 04653,0.00001422,-0.00000978,-0.00002058,-0.00040948,0.00032834,0.0006
 9734,0.05717777,0.08026214,-0.08802799,-0.00020881,0.00017544,0.000101
 63,0.00026355,-0.00023770,-0.00017065,0.00289979,0.00589723,-0.0039270
 2,0.01565750,0.01838527,-0.00879643,0.00003025,0.00005381,0.00011656,-
 0.00007460,0.00036840,-0.00010874,0.00013801,0.00015197,0.00008732,0.0
 0017974,0.00008735,-0.00001074,-0.06255479,-0.08409148,0.09313401\\-0.
 00000808,0.00002582,-0.00001741,0.00000281,-0.00001800,0.00001244,-0.0
 0002049,-0.00003413,0.00003060,0.00000393,0.00001140,-0.00002769,-0.00
 002519,0.00001341,-0.00001658,0.00003584,0.00000870,0.00003266,-0.0000
 0739,-0.00000376,-0.00000213,-0.00000406,-0.00000601,-0.00001003,-0.00
 000112,-0.00000187,0.00000227,0.00002808,-0.00004436,-0.00002513,0.000
 00274,-0.00000025,0.00000138,0.00000019,-0.00000087,0.00000475,0.00000
 050,0.00000054,0.00000279,0.00000211,-0.00000465,0.00000076,0.00000267
 ,-0.00000378,0.00000103,0.00000204,0.00000060,-0.00000028,0.00000731,0
 .00000286,-0.00001013,0.00000608,0.00001169,-0.00000270,0.00000089,0.0
 0000019,-0.00000296,0.00000198,-0.00000174,-0.00000126,-0.00000418,0.0
 0000171,-0.00000167,-0.00000005,0.00000227,0.00000193,-0.00002650,0.00
 003766,0.00002710,-0.00000290,-0.00000151,-0.00000251,0.00000328,0.000
 00112,0.00000088,0.00000249,0.00000262,0.00000260,-0.00000297,0.000000
 35,-0.00000069\\\@
 The archive entry for this job was punched.


 IT IS UNWORTHY OF EXCELLENT MEN TO LOSE HOURS LIKE SLAVES IN THE LABOR
 OF CALCULATION WHICH COULD BE SAFELY RELEGATED TO ANYONE ELSE
 IF A MACHINE WERE USED.
    -- G.W. VON LEIBNIZ
 Job cpu time:       0 days 19 hours  9 minutes 52.9 seconds.
 Elapsed time:       0 days  0 hours 57 minutes 30.2 seconds.
 File lengths (MBytes):  RWF=    857 Int=      0 D2E=      0 Chk=     26 Scr=      1
 Normal termination of Gaussian 16 at Tue Jan  7 18:20:27 2025.
