 Entering Gaussian System, Link 0=g16
 Input=gjfs/data_set_12-catalyst-41.gjf
 Output=gjfs/data_set_12-catalyst-41.log
 Initial command:
 /usr/local/intel/g16/l1.exe "/scr/Gau-256312.inp" -scrdir="/scr/"
 Entering Link 1 = /usr/local/intel/g16/l1.exe PID=    256327.
  
 Copyright (c) 1988-2019, Gaussian, Inc.  All Rights Reserved.
  
 This is part of the Gaussian(R) 16 program.  It is based on
 the Gaussian(R) 09 system (copyright 2009, Gaussian, Inc.),
 the Gaussian(R) 03 system (copyright 2003, Gaussian, Inc.),
 the Gaussian(R) 98 system (copyright 1998, Gaussian, Inc.),
 the Gaussian(R) 94 system (copyright 1995, Gaussian, Inc.),
 the Gaussian 92(TM) system (copyright 1992, Gaussian, Inc.),
 the Gaussian 90(TM) system (copyright 1990, Gaussian, Inc.),
 the Gaussian 88(TM) system (copyright 1988, Gaussian, Inc.),
 the Gaussian 86(TM) system (copyright 1986, Carnegie Mellon
 University), and the Gaussian 82(TM) system (copyright 1983,
 Carnegie Mellon University). Gaussian is a federally registered
 trademark of Gaussian, Inc.
  
 This software contains proprietary and confidential information,
 including trade secrets, belonging to Gaussian, Inc.
  
 This software is provided under written license and may be
 used, copied, transmitted, or stored only in accord with that
 written license.
  
 The following legend is applicable only to US Government
 contracts under FAR:
  
                    RESTRICTED RIGHTS LEGEND
  
 Use, reproduction and disclosure by the US Government is
 subject to restrictions as set forth in subparagraphs (a)
 and (c) of the Commercial Computer Software - Restricted
 Rights clause in FAR 52.227-19.
  
 Gaussian, Inc.
 340 Quinnipiac St., Bldg. 40, Wallingford CT 06492
  
  
 ---------------------------------------------------------------
 Warning -- This program may not be used in any manner that
 competes with the business of Gaussian, Inc. or will provide
 assistance to any competitor of Gaussian, Inc.  The licensee
 of this program is prohibited from giving any competitor of
 Gaussian, Inc. access to this program.  By using this program,
 the user acknowledges that Gaussian, Inc. is engaged in the
 business of creating and licensing software in the field of
 computational chemistry and represents and warrants to the
 licensee that it is not a competitor of Gaussian, Inc. and that
 it will not use this program in any manner prohibited above.
 ---------------------------------------------------------------
  

 Cite this work as:
 Gaussian 16, Revision C.01,
 M. J. Frisch, G. W. Trucks, H. B. Schlegel, G. E. Scuseria, 
 M. A. Robb, J. R. Cheeseman, G. Scalmani, V. Barone, 
 G. A. Petersson, H. Nakatsuji, X. Li, M. Caricato, A. V. Marenich, 
 J. Bloino, B. G. Janesko, R. Gomperts, B. Mennucci, H. P. Hratchian, 
 J. V. Ortiz, A. F. Izmaylov, J. L. Sonnenberg, D. Williams-Young, 
 F. Ding, F. Lipparini, F. Egidi, J. Goings, B. Peng, A. Petrone, 
 T. Henderson, D. Ranasinghe, V. G. Zakrzewski, J. Gao, N. Rega, 
 G. Zheng, W. Liang, M. Hada, M. Ehara, K. Toyota, R. Fukuda, 
 J. Hasegawa, M. Ishida, T. Nakajima, Y. Honda, O. Kitao, H. Nakai, 
 T. Vreven, K. Throssell, J. A. Montgomery, Jr., J. E. Peralta, 
 F. Ogliaro, M. J. Bearpark, J. J. Heyd, E. N. Brothers, K. N. Kudin, 
 V. N. Staroverov, T. A. Keith, R. Kobayashi, J. Normand, 
 K. Raghavachari, A. P. Rendell, J. C. Burant, S. S. Iyengar, 
 J. Tomasi, M. Cossi, J. M. Millam, M. Klene, C. Adamo, R. Cammi, 
 J. W. Ochterski, R. L. Martin, K. Morokuma, O. Farkas, 
 J. B. Foresman, and D. J. Fox, Gaussian, Inc., Wallingford CT, 2019.
 
 ******************************************
 Gaussian 16:  ES64L-G16RevC.01  3-Jul-2019
                 7-Jan-2025 
 ******************************************
 %nprocshared=20
 Will use up to   20 processors via shared memory.
 %mem=30GB
 %chk=outputs/data_set_12-catalyst-41.chk
 ----------------------------------
 #p M062X/DEF2TZVP opt freq pop=NBO
 ----------------------------------
 1/18=20,19=15,26=3,38=1/1,3;
 2/9=110,12=2,17=6,18=5,40=1/2;
 3/5=44,7=101,11=2,25=1,30=1,71=1,74=-55/1,2,3;
 4//1;
 5/5=2,38=5/2;
 6/7=2,8=2,9=2,10=2,28=1,40=1/1,7;
 7//1,2,3,16;
 1/18=20,19=15,26=3/3(2);
 2/9=110/2;
 99//99;
 2/9=110/2;
 3/5=44,7=101,11=2,25=1,30=1,71=1,74=-55/1,2,3;
 4/5=5,16=3,69=1/1;
 5/5=2,38=5/2;
 7//1,2,3,16;
 1/18=20,19=15,26=3/3(-5);
 2/9=110/2;
 6/7=2,8=2,9=2,10=2,19=2,28=1,40=1/1,7;
 99/9=1/99;
 Leave Link    1 at Tue Jan  7 16:43:06 2025, MaxMem=  4026531840 cpu:               0.7 elap:               0.1
 (Enter /usr/local/intel/g16/l101.exe)
 -----------------------
 data_set_12-catalyst-41
 -----------------------
 Symbolic Z-matrix:
 Charge =  0 Multiplicity = 2
 O                    -1.68101  -0.04165  -1.61759 
 N                    -1.41244  -0.25641  -0.34081 
 C                    -1.68386  -1.62739   0.1825 
 C                    -0.39041   0.61432   0.29928 
 C                    -1.6457   -1.66315   1.71816 
 C                    -3.03815  -2.11301  -0.35198 
 C                    -0.5164    2.0709   -0.21418 
 H                    -1.95345  -2.65808   2.05378 
 H                    -2.34269  -0.93125   2.14184 
 H                    -0.64302  -1.47749   2.1145 
 H                    -3.20057  -3.15192  -0.04701 
 H                    -3.06788  -2.05156  -1.44076 
 H                    -3.84987  -1.49752   0.05119 
 C                     0.56031   2.95791   0.43894 
 C                    -1.92385   2.62639   0.07249 
 H                    -0.60991   0.63107   1.37262 
 H                     1.5717    2.62472   0.1871 
 H                     0.46185   2.95327   1.53303 
 H                     0.44742   3.99258   0.09786 
 H                    -2.12914   2.62435   1.15173 
 H                    -2.6926    2.03533  -0.43129 
 H                    -2.00133   3.66052  -0.28098 
 C                     1.00118   0.02246   0.09224 
 C                     1.86414  -0.167     1.18319 
 C                     3.1537   -0.68605   0.99361 
 C                     3.5889   -1.02613  -0.29549 
 C                     2.72778  -0.8442   -1.3902 
 C                     1.4413   -0.32365  -1.19864 
 H                    -0.36018   2.05767  -1.29821 
 H                     1.53174   0.10098   2.18323 
 H                     3.81264  -0.82464   1.84457 
 H                     4.58499  -1.42918  -0.44624 
 H                     3.05928  -1.10862  -2.38913 
 H                     0.77201  -0.18879  -2.04344 
 H                    -0.88946  -2.28173  -0.20749 
 
 ITRead=  0  0  0  0  0  0  0  0  0  0  0  0  0  0  0  0  0  0  0  0
 ITRead=  0  0  0  0  0  0  0  0  0  0  0  0  0  0  0
 MicOpt= -1 -1 -1 -1 -1 -1 -1 -1 -1 -1 -1 -1 -1 -1 -1 -1 -1 -1 -1 -1
 MicOpt= -1 -1 -1 -1 -1 -1 -1 -1 -1 -1 -1 -1 -1 -1 -1
 NAtoms=     35 NQM=       35 NQMF=       0 NMMI=      0 NMMIF=      0
                NMic=       0 NMicF=      0.
                    Isotopes and Nuclear Properties:
 (Nuclear quadrupole moments (NQMom) in fm**2, nuclear magnetic moments (NMagM)
  in nuclear magnetons)

  Atom         1           2           3           4           5           6           7           8           9          10
 IAtWgt=          16          14          12          12          12          12          12           1           1           1
 AtmWgt=  15.9949146  14.0030740  12.0000000  12.0000000  12.0000000  12.0000000  12.0000000   1.0078250   1.0078250   1.0078250
 NucSpn=           0           2           0           0           0           0           0           1           1           1
 AtZEff=  -0.0000000  -0.0000000  -0.0000000  -0.0000000  -0.0000000  -0.0000000  -0.0000000  -0.0000000  -0.0000000  -0.0000000
 NQMom=    0.0000000   2.0440000   0.0000000   0.0000000   0.0000000   0.0000000   0.0000000   0.0000000   0.0000000   0.0000000
 NMagM=    0.0000000   0.4037610   0.0000000   0.0000000   0.0000000   0.0000000   0.0000000   2.7928460   2.7928460   2.7928460
 AtZNuc=   8.0000000   7.0000000   6.0000000   6.0000000   6.0000000   6.0000000   6.0000000   1.0000000   1.0000000   1.0000000

  Atom        11          12          13          14          15          16          17          18          19          20
 IAtWgt=           1           1           1          12          12           1           1           1           1           1
 AtmWgt=   1.0078250   1.0078250   1.0078250  12.0000000  12.0000000   1.0078250   1.0078250   1.0078250   1.0078250   1.0078250
 NucSpn=           1           1           1           0           0           1           1           1           1           1
 AtZEff=  -0.0000000  -0.0000000  -0.0000000  -0.0000000  -0.0000000  -0.0000000  -0.0000000  -0.0000000  -0.0000000  -0.0000000
 NQMom=    0.0000000   0.0000000   0.0000000   0.0000000   0.0000000   0.0000000   0.0000000   0.0000000   0.0000000   0.0000000
 NMagM=    2.7928460   2.7928460   2.7928460   0.0000000   0.0000000   2.7928460   2.7928460   2.7928460   2.7928460   2.7928460
 AtZNuc=   1.0000000   1.0000000   1.0000000   6.0000000   6.0000000   1.0000000   1.0000000   1.0000000   1.0000000   1.0000000

  Atom        21          22          23          24          25          26          27          28          29          30
 IAtWgt=           1           1          12          12          12          12          12          12           1           1
 AtmWgt=   1.0078250   1.0078250  12.0000000  12.0000000  12.0000000  12.0000000  12.0000000  12.0000000   1.0078250   1.0078250
 NucSpn=           1           1           0           0           0           0           0           0           1           1
 AtZEff=  -0.0000000  -0.0000000  -0.0000000  -0.0000000  -0.0000000  -0.0000000  -0.0000000  -0.0000000  -0.0000000  -0.0000000
 NQMom=    0.0000000   0.0000000   0.0000000   0.0000000   0.0000000   0.0000000   0.0000000   0.0000000   0.0000000   0.0000000
 NMagM=    2.7928460   2.7928460   0.0000000   0.0000000   0.0000000   0.0000000   0.0000000   0.0000000   2.7928460   2.7928460
 AtZNuc=   1.0000000   1.0000000   6.0000000   6.0000000   6.0000000   6.0000000   6.0000000   6.0000000   1.0000000   1.0000000

  Atom        31          32          33          34          35
 IAtWgt=           1           1           1           1           1
 AtmWgt=   1.0078250   1.0078250   1.0078250   1.0078250   1.0078250
 NucSpn=           1           1           1           1           1
 AtZEff=  -0.0000000  -0.0000000  -0.0000000  -0.0000000  -0.0000000
 NQMom=    0.0000000   0.0000000   0.0000000   0.0000000   0.0000000
 NMagM=    2.7928460   2.7928460   2.7928460   2.7928460   2.7928460
 AtZNuc=   1.0000000   1.0000000   1.0000000   1.0000000   1.0000000
 Leave Link  101 at Tue Jan  7 16:43:08 2025, MaxMem=  4026531840 cpu:              16.7 elap:               1.0
 (Enter /usr/local/intel/g16/l103.exe)

 GradGradGradGradGradGradGradGradGradGradGradGradGradGradGradGradGradGrad
 Berny optimization.
 Initialization pass.
                           ----------------------------
                           !    Initial Parameters    !
                           ! (Angstroms and Degrees)  !
 --------------------------                            --------------------------
 ! Name  Definition              Value          Derivative Info.                !
 --------------------------------------------------------------------------------
 ! R1    R(1,2)                  1.3223         estimate D2E/DX2                !
 ! R2    R(2,3)                  1.4924         estimate D2E/DX2                !
 ! R3    R(2,4)                  1.4874         estimate D2E/DX2                !
 ! R4    R(3,5)                  1.5365         estimate D2E/DX2                !
 ! R5    R(3,6)                  1.5348         estimate D2E/DX2                !
 ! R6    R(3,35)                 1.1006         estimate D2E/DX2                !
 ! R7    R(4,7)                  1.5496         estimate D2E/DX2                !
 ! R8    R(4,16)                 1.0957         estimate D2E/DX2                !
 ! R9    R(4,23)                 1.5263         estimate D2E/DX2                !
 ! R10   R(5,8)                  1.0942         estimate D2E/DX2                !
 ! R11   R(5,9)                  1.0959         estimate D2E/DX2                !
 ! R12   R(5,10)                 1.094          estimate D2E/DX2                !
 ! R13   R(6,11)                 1.0949         estimate D2E/DX2                !
 ! R14   R(6,12)                 1.0909         estimate D2E/DX2                !
 ! R15   R(6,13)                 1.0956         estimate D2E/DX2                !
 ! R16   R(7,14)                 1.5403         estimate D2E/DX2                !
 ! R17   R(7,15)                 1.54           estimate D2E/DX2                !
 ! R18   R(7,29)                 1.0953         estimate D2E/DX2                !
 ! R19   R(14,17)                1.0942         estimate D2E/DX2                !
 ! R20   R(14,18)                1.0985         estimate D2E/DX2                !
 ! R21   R(14,19)                1.0953         estimate D2E/DX2                !
 ! R22   R(15,20)                1.0986         estimate D2E/DX2                !
 ! R23   R(15,21)                1.0928         estimate D2E/DX2                !
 ! R24   R(15,22)                1.0956         estimate D2E/DX2                !
 ! R25   R(23,24)                1.4038         estimate D2E/DX2                !
 ! R26   R(23,28)                1.4071         estimate D2E/DX2                !
 ! R27   R(24,25)                1.403          estimate D2E/DX2                !
 ! R28   R(24,30)                1.0874         estimate D2E/DX2                !
 ! R29   R(25,26)                1.4024         estimate D2E/DX2                !
 ! R30   R(25,31)                1.0852         estimate D2E/DX2                !
 ! R31   R(26,27)                1.4047         estimate D2E/DX2                !
 ! R32   R(26,32)                1.0851         estimate D2E/DX2                !
 ! R33   R(27,28)                1.401          estimate D2E/DX2                !
 ! R34   R(27,33)                1.0852         estimate D2E/DX2                !
 ! R35   R(28,34)                1.0862         estimate D2E/DX2                !
 ! A1    A(1,2,3)              116.7991         estimate D2E/DX2                !
 ! A2    A(1,2,4)              117.3879         estimate D2E/DX2                !
 ! A3    A(3,2,4)              120.787          estimate D2E/DX2                !
 ! A4    A(2,3,5)              111.5507         estimate D2E/DX2                !
 ! A5    A(2,3,6)              109.2109         estimate D2E/DX2                !
 ! A6    A(2,3,35)             106.8967         estimate D2E/DX2                !
 ! A7    A(5,3,6)              111.2593         estimate D2E/DX2                !
 ! A8    A(5,3,35)             108.8068         estimate D2E/DX2                !
 ! A9    A(6,3,35)             108.9889         estimate D2E/DX2                !
 ! A10   A(2,4,7)              110.5979         estimate D2E/DX2                !
 ! A11   A(2,4,16)             107.0293         estimate D2E/DX2                !
 ! A12   A(2,4,23)             109.9436         estimate D2E/DX2                !
 ! A13   A(7,4,16)             107.0942         estimate D2E/DX2                !
 ! A14   A(7,4,23)             113.1833         estimate D2E/DX2                !
 ! A15   A(16,4,23)            108.7507         estimate D2E/DX2                !
 ! A16   A(3,5,8)              108.7073         estimate D2E/DX2                !
 ! A17   A(3,5,9)              110.7963         estimate D2E/DX2                !
 ! A18   A(3,5,10)             112.3877         estimate D2E/DX2                !
 ! A19   A(8,5,9)              108.0478         estimate D2E/DX2                !
 ! A20   A(8,5,10)             107.5152         estimate D2E/DX2                !
 ! A21   A(9,5,10)             109.2382         estimate D2E/DX2                !
 ! A22   A(3,6,11)             109.5205         estimate D2E/DX2                !
 ! A23   A(3,6,12)             110.7187         estimate D2E/DX2                !
 ! A24   A(3,6,13)             110.3568         estimate D2E/DX2                !
 ! A25   A(11,6,12)            109.1116         estimate D2E/DX2                !
 ! A26   A(11,6,13)            108.7039         estimate D2E/DX2                !
 ! A27   A(12,6,13)            108.387          estimate D2E/DX2                !
 ! A28   A(4,7,14)             110.1191         estimate D2E/DX2                !
 ! A29   A(4,7,15)             110.5901         estimate D2E/DX2                !
 ! A30   A(4,7,29)             107.7583         estimate D2E/DX2                !
 ! A31   A(14,7,15)            110.6212         estimate D2E/DX2                !
 ! A32   A(14,7,29)            109.0808         estimate D2E/DX2                !
 ! A33   A(15,7,29)            108.5984         estimate D2E/DX2                !
 ! A34   A(7,14,17)            111.9101         estimate D2E/DX2                !
 ! A35   A(7,14,18)            110.9293         estimate D2E/DX2                !
 ! A36   A(7,14,19)            109.8715         estimate D2E/DX2                !
 ! A37   A(17,14,18)           108.1059         estimate D2E/DX2                !
 ! A38   A(17,14,19)           108.1338         estimate D2E/DX2                !
 ! A39   A(18,14,19)           107.7528         estimate D2E/DX2                !
 ! A40   A(7,15,20)            110.6697         estimate D2E/DX2                !
 ! A41   A(7,15,21)            111.2246         estimate D2E/DX2                !
 ! A42   A(7,15,22)            110.1842         estimate D2E/DX2                !
 ! A43   A(20,15,21)           108.6889         estimate D2E/DX2                !
 ! A44   A(20,15,22)           107.7863         estimate D2E/DX2                !
 ! A45   A(21,15,22)           108.1828         estimate D2E/DX2                !
 ! A46   A(4,23,24)            120.4889         estimate D2E/DX2                !
 ! A47   A(4,23,28)            120.3313         estimate D2E/DX2                !
 ! A48   A(24,23,28)           119.1745         estimate D2E/DX2                !
 ! A49   A(23,24,25)           120.6597         estimate D2E/DX2                !
 ! A50   A(23,24,30)           119.573          estimate D2E/DX2                !
 ! A51   A(25,24,30)           119.7645         estimate D2E/DX2                !
 ! A52   A(24,25,26)           119.9447         estimate D2E/DX2                !
 ! A53   A(24,25,31)           119.9625         estimate D2E/DX2                !
 ! A54   A(26,25,31)           120.0928         estimate D2E/DX2                !
 ! A55   A(25,26,27)           119.6507         estimate D2E/DX2                !
 ! A56   A(25,26,32)           120.176          estimate D2E/DX2                !
 ! A57   A(27,26,32)           120.1732         estimate D2E/DX2                !
 ! A58   A(26,27,28)           120.2997         estimate D2E/DX2                !
 ! A59   A(26,27,33)           119.9045         estimate D2E/DX2                !
 ! A60   A(28,27,33)           119.7958         estimate D2E/DX2                !
 ! A61   A(23,28,27)           120.2694         estimate D2E/DX2                !
 ! A62   A(23,28,34)           119.3575         estimate D2E/DX2                !
 ! A63   A(27,28,34)           120.3721         estimate D2E/DX2                !
 ! D1    D(1,2,3,5)           -166.795          estimate D2E/DX2                !
 ! D2    D(1,2,3,6)            -43.3975         estimate D2E/DX2                !
 ! D3    D(1,2,3,35)            74.3751         estimate D2E/DX2                !
 ! D4    D(4,2,3,5)             38.9333         estimate D2E/DX2                !
 ! D5    D(4,2,3,6)            162.3308         estimate D2E/DX2                !
 ! D6    D(4,2,3,35)           -79.8966         estimate D2E/DX2                !
 ! D7    D(1,2,4,7)             38.4434         estimate D2E/DX2                !
 ! D8    D(1,2,4,16)           154.7727         estimate D2E/DX2                !
 ! D9    D(1,2,4,23)           -87.2723         estimate D2E/DX2                !
 ! D10   D(3,2,4,7)           -167.4305         estimate D2E/DX2                !
 ! D11   D(3,2,4,16)           -51.1012         estimate D2E/DX2                !
 ! D12   D(3,2,4,23)            66.8538         estimate D2E/DX2                !
 ! D13   D(2,3,5,8)            174.0687         estimate D2E/DX2                !
 ! D14   D(2,3,5,9)             55.4817         estimate D2E/DX2                !
 ! D15   D(2,3,5,10)           -67.041          estimate D2E/DX2                !
 ! D16   D(6,3,5,8)             51.8424         estimate D2E/DX2                !
 ! D17   D(6,3,5,9)            -66.7446         estimate D2E/DX2                !
 ! D18   D(6,3,5,10)           170.7327         estimate D2E/DX2                !
 ! D19   D(35,3,5,8)           -68.246          estimate D2E/DX2                !
 ! D20   D(35,3,5,9)           173.167          estimate D2E/DX2                !
 ! D21   D(35,3,5,10)           50.6443         estimate D2E/DX2                !
 ! D22   D(2,3,6,11)           174.8417         estimate D2E/DX2                !
 ! D23   D(2,3,6,12)            54.4779         estimate D2E/DX2                !
 ! D24   D(2,3,6,13)           -65.5256         estimate D2E/DX2                !
 ! D25   D(5,3,6,11)           -61.5881         estimate D2E/DX2                !
 ! D26   D(5,3,6,12)           178.0481         estimate D2E/DX2                !
 ! D27   D(5,3,6,13)            58.0446         estimate D2E/DX2                !
 ! D28   D(35,3,6,11)           58.3924         estimate D2E/DX2                !
 ! D29   D(35,3,6,12)          -61.9714         estimate D2E/DX2                !
 ! D30   D(35,3,6,13)          178.0252         estimate D2E/DX2                !
 ! D31   D(2,4,7,14)          -179.1305         estimate D2E/DX2                !
 ! D32   D(2,4,7,15)            58.3021         estimate D2E/DX2                !
 ! D33   D(2,4,7,29)           -60.2566         estimate D2E/DX2                !
 ! D34   D(16,4,7,14)           64.5804         estimate D2E/DX2                !
 ! D35   D(16,4,7,15)          -57.987          estimate D2E/DX2                !
 ! D36   D(16,4,7,29)         -176.5457         estimate D2E/DX2                !
 ! D37   D(23,4,7,14)          -55.2577         estimate D2E/DX2                !
 ! D38   D(23,4,7,15)         -177.8251         estimate D2E/DX2                !
 ! D39   D(23,4,7,29)           63.6163         estimate D2E/DX2                !
 ! D40   D(2,4,23,24)         -128.5425         estimate D2E/DX2                !
 ! D41   D(2,4,23,28)           52.3039         estimate D2E/DX2                !
 ! D42   D(7,4,23,24)          107.2271         estimate D2E/DX2                !
 ! D43   D(7,4,23,28)          -71.9265         estimate D2E/DX2                !
 ! D44   D(16,4,23,24)         -11.6586         estimate D2E/DX2                !
 ! D45   D(16,4,23,28)         169.1878         estimate D2E/DX2                !
 ! D46   D(4,7,14,17)           61.6659         estimate D2E/DX2                !
 ! D47   D(4,7,14,18)          -59.1614         estimate D2E/DX2                !
 ! D48   D(4,7,14,19)         -178.1966         estimate D2E/DX2                !
 ! D49   D(15,7,14,17)        -175.7849         estimate D2E/DX2                !
 ! D50   D(15,7,14,18)          63.3878         estimate D2E/DX2                !
 ! D51   D(15,7,14,19)         -55.6475         estimate D2E/DX2                !
 ! D52   D(29,7,14,17)         -56.3957         estimate D2E/DX2                !
 ! D53   D(29,7,14,18)        -177.223          estimate D2E/DX2                !
 ! D54   D(29,7,14,19)          63.7418         estimate D2E/DX2                !
 ! D55   D(4,7,15,20)           60.1301         estimate D2E/DX2                !
 ! D56   D(4,7,15,21)          -60.7946         estimate D2E/DX2                !
 ! D57   D(4,7,15,22)          179.243          estimate D2E/DX2                !
 ! D58   D(14,7,15,20)         -62.1437         estimate D2E/DX2                !
 ! D59   D(14,7,15,21)         176.9315         estimate D2E/DX2                !
 ! D60   D(14,7,15,22)          56.9692         estimate D2E/DX2                !
 ! D61   D(29,7,15,20)         178.1765         estimate D2E/DX2                !
 ! D62   D(29,7,15,21)          57.2517         estimate D2E/DX2                !
 ! D63   D(29,7,15,22)         -62.7106         estimate D2E/DX2                !
 ! D64   D(4,23,24,25)        -178.7312         estimate D2E/DX2                !
 ! D65   D(4,23,24,30)           0.6581         estimate D2E/DX2                !
 ! D66   D(28,23,24,25)          0.4321         estimate D2E/DX2                !
 ! D67   D(28,23,24,30)        179.8214         estimate D2E/DX2                !
 ! D68   D(4,23,28,27)         178.8403         estimate D2E/DX2                !
 ! D69   D(4,23,28,34)          -1.5205         estimate D2E/DX2                !
 ! D70   D(24,23,28,27)         -0.3244         estimate D2E/DX2                !
 ! D71   D(24,23,28,34)        179.3148         estimate D2E/DX2                !
 ! D72   D(23,24,25,26)         -0.266          estimate D2E/DX2                !
 ! D73   D(23,24,25,31)        179.7885         estimate D2E/DX2                !
 ! D74   D(30,24,25,26)       -179.6542         estimate D2E/DX2                !
 ! D75   D(30,24,25,31)          0.4004         estimate D2E/DX2                !
 ! D76   D(24,25,26,27)         -0.0115         estimate D2E/DX2                !
 ! D77   D(24,25,26,32)       -179.9127         estimate D2E/DX2                !
 ! D78   D(31,25,26,27)        179.9339         estimate D2E/DX2                !
 ! D79   D(31,25,26,32)          0.0327         estimate D2E/DX2                !
 ! D80   D(25,26,27,28)          0.1174         estimate D2E/DX2                !
 ! D81   D(25,26,27,33)       -179.8264         estimate D2E/DX2                !
 ! D82   D(32,26,27,28)       -179.9814         estimate D2E/DX2                !
 ! D83   D(32,26,27,33)          0.0747         estimate D2E/DX2                !
 ! D84   D(26,27,28,23)          0.0522         estimate D2E/DX2                !
 ! D85   D(26,27,28,34)       -179.5834         estimate D2E/DX2                !
 ! D86   D(33,27,28,23)        179.9961         estimate D2E/DX2                !
 ! D87   D(33,27,28,34)          0.3605         estimate D2E/DX2                !
 --------------------------------------------------------------------------------
 Trust Radius=3.00D-01 FncErr=1.00D-07 GrdErr=1.00D-06 EigMax=2.50D+02 EigMin=1.00D-04
 Number of steps in this run=    195 maximum allowed number of steps=    210.
 GradGradGradGradGradGradGradGradGradGradGradGradGradGradGradGradGradGrad

 Leave Link  103 at Tue Jan  7 16:43:08 2025, MaxMem=  4026531840 cpu:               0.2 elap:               0.1
 (Enter /usr/local/intel/g16/l202.exe)
                          Input orientation:                          
 ---------------------------------------------------------------------
 Center     Atomic      Atomic             Coordinates (Angstroms)
 Number     Number       Type             X           Y           Z
 ---------------------------------------------------------------------
      1          8           0       -1.681012   -0.041647   -1.617591
      2          7           0       -1.412442   -0.256407   -0.340812
      3          6           0       -1.683862   -1.627390    0.182501
      4          6           0       -0.390414    0.614315    0.299277
      5          6           0       -1.645701   -1.663152    1.718159
      6          6           0       -3.038149   -2.113014   -0.351975
      7          6           0       -0.516396    2.070898   -0.214184
      8          1           0       -1.953445   -2.658079    2.053781
      9          1           0       -2.342691   -0.931252    2.141842
     10          1           0       -0.643018   -1.477488    2.114497
     11          1           0       -3.200573   -3.151924   -0.047008
     12          1           0       -3.067879   -2.051560   -1.440757
     13          1           0       -3.849869   -1.497519    0.051187
     14          6           0        0.560306    2.957913    0.438937
     15          6           0       -1.923846    2.626388    0.072486
     16          1           0       -0.609912    0.631067    1.372615
     17          1           0        1.571704    2.624723    0.187098
     18          1           0        0.461849    2.953266    1.533028
     19          1           0        0.447424    3.992581    0.097861
     20          1           0       -2.129138    2.624351    1.151731
     21          1           0       -2.692603    2.035331   -0.431293
     22          1           0       -2.001327    3.660519   -0.280975
     23          6           0        1.001181    0.022460    0.092243
     24          6           0        1.864141   -0.166997    1.183194
     25          6           0        3.153700   -0.686046    0.993607
     26          6           0        3.588904   -1.026134   -0.295485
     27          6           0        2.727775   -0.844200   -1.390199
     28          6           0        1.441301   -0.323654   -1.198643
     29          1           0       -0.360178    2.057674   -1.298207
     30          1           0        1.531743    0.100983    2.183230
     31          1           0        3.812642   -0.824644    1.844570
     32          1           0        4.584991   -1.429184   -0.446240
     33          1           0        3.059282   -1.108619   -2.389131
     34          1           0        0.772014   -0.188788   -2.043443
     35          1           0       -0.889463   -2.281730   -0.207493
 ---------------------------------------------------------------------
                    Distance matrix (angstroms):
                    1          2          3          4          5
     1  O    0.000000
     2  N    1.322277   0.000000
     3  C    2.398941   1.492354   0.000000
     4  C    2.402147   1.487418   2.590731   0.000000
     5  C    3.709145   2.504536   1.536548   2.962402   0.000000
     6  C    2.781037   2.467800   1.534793   3.856547   2.535102
     7  C    2.790829   2.497055   3.898419   1.549564   4.353436
     8  H    4.516515   3.434354   2.153296   4.028637   1.094179
     9  H    3.919509   2.735754   2.181211   3.097613   1.095892
    10  H    4.131289   2.848086   2.199644   2.781092   1.094042
    11  H    3.801266   3.415809   2.162704   4.711843   2.783861
    12  H    2.448351   2.678232   2.174946   4.159739   3.486001
    13  H    3.099730   2.763164   2.173867   4.060692   2.768499
    14  C    4.272022   3.851181   5.111463   2.532948   5.277984
    15  C    3.167608   2.956832   4.261962   2.539938   4.602799
    16  H    3.246711   2.089856   2.769543   1.095680   2.540807
    17  H    4.576745   4.181474   5.355296   2.811447   5.575098
    18  H    4.846417   4.162480   5.235495   2.778342   5.078125
    19  H    4.873193   4.658909   6.011125   3.486434   6.244506
    20  H    3.870078   3.322665   4.383489   2.791072   4.351693
    21  H    2.597009   2.626607   3.848354   2.802337   4.403967
    22  H    3.949073   3.961398   5.317666   3.494437   5.697761
    23  C    3.181478   2.467971   3.152714   1.526333   3.534243
    24  C    4.519759   3.614773   3.965156   2.544558   3.852747
    25  C    5.532454   4.776496   4.994600   3.838460   4.951158
    26  C    5.521702   5.060434   5.328418   4.345088   5.644612
    27  C    4.487004   4.311393   4.748612   3.834670   5.427694
    28  C    3.162892   2.980645   3.657038   2.545335   4.453265
    29  H    2.500751   2.716401   4.186207   2.153173   4.959393
    30  H    4.978793   3.894450   4.162968   2.739977   3.663961
    31  H    6.540633   5.692125   5.798140   4.703638   5.523820
    32  H    6.523811   6.111933   6.303421   5.430132   6.600067
    33  H    4.919765   4.991812   5.420316   4.700685   6.270104
    34  H    2.494060   2.770446   3.613271   2.735791   4.708370
    35  H    2.762770   2.096000   1.100603   2.982104   2.159322
                    6          7          8          9         10
     6  C    0.000000
     7  C    4.887059   0.000000
     8  H    2.694687   5.438014   0.000000
     9  H    2.845935   4.230735   1.772343   0.000000
    10  H    3.496288   4.246155   1.764851   1.785500   0.000000
    11  H    1.094861   5.874574   2.492494   3.233947   3.743919
    12  H    1.090920   5.000921   3.717745   3.823088   4.341583
    13  H    1.095565   4.890405   2.992274   2.638765   3.813337
    14  C    6.268072   1.540341   6.361292   5.143236   4.891653
    15  C    4.887102   1.540021   5.643757   4.136964   4.759425
    16  H    4.049756   2.144712   3.617672   2.456639   2.235506
    17  H    6.632307   2.197251   6.619606   5.638127   5.044601
    18  H    6.439753   2.188215   6.131233   4.829656   4.603305
    19  H    7.044846   2.172369   7.336285   6.017203   5.931066
    20  H    5.052728   2.184713   5.361775   3.697058   4.467724
    21  H    4.163467   2.187299   5.361907   3.942598   4.798098
    22  H    5.866321   2.176322   6.736324   5.202973   5.829443
    23  C    4.590617   2.567691   4.445530   4.036323   3.007116
    24  C    5.493284   3.553561   4.640838   4.381841   2.978348
    25  C    6.495061   4.746483   5.576362   5.620399   4.037059
    26  C    6.715827   5.143122   6.236981   6.413531   4.890899
    27  C    5.994471   4.517240   6.088101   6.180009   4.903692
    28  C    4.897359   3.245861   5.249010   5.083956   4.080762
    29  H    5.045941   1.095301   6.001054   4.969706   4.921780
    30  H    5.675646   3.717934   4.446989   4.009796   2.688100
    31  H    7.308765   5.600286   6.054173   6.163429   4.511316
    32  H    7.654330   6.191007   7.107140   7.412077   5.821665
    33  H    6.506726   5.255968   6.875153   7.052835   5.841725
    34  H    4.591411   3.179995   5.505703   5.269654   4.577284
    35  H    2.160137   4.368592   2.527263   3.074904   2.469651
                   11         12         13         14         15
    11  H    0.000000
    12  H    1.780715   0.000000
    13  H    1.779967   1.773236   0.000000
    14  C    7.190999   6.464657   6.280993   0.000000
    15  C    5.918885   5.047961   4.551552   2.532826   0.000000
    16  H    4.799779   4.599256   4.095653   2.766835   2.719938
    17  H    7.496605   6.785519   6.812107   1.094241   3.497429
    18  H    7.292681   6.808132   6.371519   1.098522   2.816305
    19  H    8.023267   7.159353   6.972095   1.095268   2.736795
    20  H    5.995857   5.428294   4.600209   2.802222   1.098599
    21  H    5.226215   4.226408   3.748744   3.491400   1.092762
    22  H    6.921150   5.925409   5.489335   2.752071   1.095612
    23  C    5.267907   4.817561   5.083769   2.988553   3.916199
    24  C    6.006206   5.895890   5.975085   3.466838   4.835857
    25  C    6.894942   6.819003   7.113130   4.506860   6.132060
    26  C    7.118829   6.831977   7.461751   5.058104   6.623197
    27  C    6.501928   5.920294   6.765340   4.743387   5.985149
    28  C    5.556291   4.834975   5.562060   3.771804   4.652175
    29  H    6.064095   4.923187   5.161221   2.162265   2.155758
    30  H    6.160372   6.238850   6.005211   3.485441   4.772212
    31  H    7.627548   7.722711   7.898295   5.182782   6.925114
    32  H    7.983873   7.742276   8.449791   6.018991   7.686462
    33  H    6.989021   6.271416   7.337763   5.547930   6.696372
    34  H    5.342974   4.310212   5.240425   4.013572   4.435091
    35  H    2.474717   2.513845   3.073419   5.474811   5.023740
                   16         17         18         19         20
    16  H    0.000000
    17  H    3.184268   0.000000
    18  H    2.562618   1.775175   0.000000
    19  H    3.747364   1.772852   1.772029   0.000000
    20  H    2.515953   3.824493   2.639467   3.101833   0.000000
    21  H    3.092514   4.349035   3.827758   3.737727   1.780562
    22  H    3.721287   3.749469   3.139753   2.500033   1.772745
    23  C    2.146014   2.665758   3.310040   4.008558   4.206097
    24  C    2.606477   2.978494   3.438728   4.526270   4.872257
    25  C    4.005397   3.756908   4.558687   5.478671   6.236354
    26  C    4.812372   4.198897   5.381223   5.933896   6.936604
    27  C    4.577085   3.982184   5.300983   5.550565   6.487053
    28  C    3.424958   3.260400   4.377163   4.615040   5.192593
    29  H    3.038234   2.501968   3.081186   2.518947   3.074498
    30  H    2.350483   3.217981   3.114957   4.546322   4.564365
    31  H    4.679831   4.434766   5.059395   6.130362   6.905095
    32  H    5.877064   5.090695   6.334325   6.841860   8.004011
    33  H    5.535361   4.773645   6.215215   6.247333   7.307015
    34  H    3.775094   3.678405   4.770729   4.708969   5.151657
    35  H    3.325549   5.503301   5.679845   6.422421   5.239648
                   21         22         23         24         25
    21  H    0.000000
    22  H    1.772482   0.000000
    23  C    4.239078   4.731788   0.000000
    24  C    5.312319   5.633428   1.403840   0.000000
    25  C    6.604203   6.862324   2.438806   1.402967   0.000000
    26  C    6.989159   7.294903   2.818899   2.428871   1.402434
    27  C    6.212222   6.624747   2.435131   2.797645   2.426717
    28  C    4.821079   5.344851   1.407085   2.424146   2.805280
    29  H    2.488422   2.509431   2.815803   4.006758   5.012759
    30  H    5.331279   5.587950   2.158677   1.087370   2.159945
    31  H    7.461717   7.644401   3.419437   2.160225   1.085151
    32  H    8.060178   8.325381   3.903963   3.413385   2.161945
    33  H    6.841179   7.266276   3.416480   3.882849   3.410337
    34  H    4.421459   5.061114   2.158309   3.406524   3.891448
    35  H    4.683846   6.045822   2.995608   3.740112   4.509547
                   26         27         28         29         30
    26  C    0.000000
    27  C    1.404650   0.000000
    28  C    2.433387   1.400956   0.000000
    29  H    5.109850   4.238489   2.987635   0.000000
    30  H    3.412672   3.885004   3.409628   4.419096   0.000000
    31  H    2.161132   3.411898   3.890423   5.966342   2.484749
    32  H    1.085065   2.163912   3.416298   6.110542   4.310203
    33  H    2.161170   1.085209   2.156686   4.786255   4.970211
    34  H    3.419265   2.163630   1.086196   2.623705   4.304175
    35  H    4.651885   4.068132   3.201390   4.505577   4.153928
                   31         32         33         34         35
    31  H    0.000000
    32  H    2.491947   0.000000
    33  H    4.309573   2.491059   0.000000
    34  H    4.976583   4.316067   2.489414   0.000000
    35  H    5.333278   5.545582   4.661365   3.242164   0.000000
 Stoichiometry    C13H20NO(2)
 Framework group  C1[X(C13H20NO)]
 Deg. of freedom    99
 Full point group                 C1      NOp   1
 Largest Abelian subgroup         C1      NOp   1
 Largest concise Abelian subgroup C1      NOp   1
                         Standard orientation:                         
 ---------------------------------------------------------------------
 Center     Atomic      Atomic             Coordinates (Angstroms)
 Number     Number       Type             X           Y           Z
 ---------------------------------------------------------------------
      1          8           0       -1.681012   -0.041647   -1.617591
      2          7           0       -1.412442   -0.256407   -0.340812
      3          6           0       -1.683862   -1.627390    0.182501
      4          6           0       -0.390414    0.614315    0.299277
      5          6           0       -1.645701   -1.663152    1.718159
      6          6           0       -3.038149   -2.113014   -0.351975
      7          6           0       -0.516396    2.070898   -0.214184
      8          1           0       -1.953445   -2.658079    2.053781
      9          1           0       -2.342691   -0.931252    2.141842
     10          1           0       -0.643018   -1.477488    2.114497
     11          1           0       -3.200573   -3.151924   -0.047008
     12          1           0       -3.067879   -2.051560   -1.440757
     13          1           0       -3.849869   -1.497519    0.051187
     14          6           0        0.560306    2.957913    0.438937
     15          6           0       -1.923846    2.626388    0.072486
     16          1           0       -0.609912    0.631067    1.372615
     17          1           0        1.571704    2.624723    0.187098
     18          1           0        0.461849    2.953266    1.533028
     19          1           0        0.447424    3.992581    0.097861
     20          1           0       -2.129138    2.624351    1.151731
     21          1           0       -2.692603    2.035331   -0.431293
     22          1           0       -2.001327    3.660519   -0.280975
     23          6           0        1.001181    0.022460    0.092243
     24          6           0        1.864141   -0.166997    1.183194
     25          6           0        3.153700   -0.686046    0.993607
     26          6           0        3.588904   -1.026134   -0.295485
     27          6           0        2.727775   -0.844200   -1.390199
     28          6           0        1.441301   -0.323654   -1.198643
     29          1           0       -0.360178    2.057674   -1.298207
     30          1           0        1.531743    0.100983    2.183230
     31          1           0        3.812642   -0.824644    1.844570
     32          1           0        4.584991   -1.429184   -0.446240
     33          1           0        3.059282   -1.108619   -2.389131
     34          1           0        0.772014   -0.188788   -2.043443
     35          1           0       -0.889463   -2.281730   -0.207493
 ---------------------------------------------------------------------
 Rotational constants (GHZ):           0.7378995           0.4792038           0.3752154
 Leave Link  202 at Tue Jan  7 16:43:08 2025, MaxMem=  4026531840 cpu:               0.1 elap:               0.2
 (Enter /usr/local/intel/g16/l301.exe)
 Standard basis: def2TZVP (5D, 7F)
 Ernie: Thresh=  0.10000D-02 Tol=  0.10000D-05 Strict=F.
 There are   660 symmetry adapted cartesian basis functions of A   symmetry.
 There are   585 symmetry adapted basis functions of A   symmetry.
   585 basis functions,   925 primitive gaussians,   660 cartesian basis functions
    57 alpha electrons       56 beta electrons
       nuclear repulsion energy      1042.4746597451 Hartrees.
 IExCor= 4336 DFT=T Ex+Corr=M062X ExCW=0 ScaHFX=  0.540000
 ScaDFX=  1.000000  1.000000  1.000000  1.000000 ScalE2=  1.000000  1.000000
 IRadAn=      5 IRanWt=     -1 IRanGd=            0 ICorTp=0 IEmpDi=  4
 NAtoms=   35 NActive=   35 NUniq=   35 SFac= 1.00D+00 NAtFMM=   60 NAOKFM=F Big=F
 Integral buffers will be    131072 words long.
 Raffenetti 2 integral format.
 Two-electron integral symmetry is turned on.
 Leave Link  301 at Tue Jan  7 16:43:09 2025, MaxMem=  4026531840 cpu:               0.9 elap:               0.3
 (Enter /usr/local/intel/g16/l302.exe)
 NPDir=0 NMtPBC=     1 NCelOv=     1 NCel=       1 NClECP=     1 NCelD=      1
         NCelK=      1 NCelE2=     1 NClLst=     1 CellRange=     0.0.
 One-electron integrals computed using PRISM.
 One-electron integral symmetry used in STVInt
   1 Symmetry operations used in ECPInt.
 ECPInt:  NShTT=   30135 NPrTT=   88800 LenC2=   28324 LenP2D=   62287.
 LDataN:  DoStor=T MaxTD1= 6 Len=  172
 NBasis=   585 RedAO= T EigKep=  8.15D-06  NBF=   585
 NBsUse=   585 1.00D-06 EigRej= -1.00D+00 NBFU=   585
 Precomputing XC quadrature grid using
 IXCGrd= 4 IRadAn=           5 IRanWt=          -1 IRanGd=           0 AccXCQ= 0.00D+00.
 Generated NRdTot=       0 NPtTot=           0 NUsed=           0 NTot=          32
 NSgBfM=   654   654   654   654   654 MxSgAt=    35 MxSgA2=    35.
 Leave Link  302 at Tue Jan  7 16:43:10 2025, MaxMem=  4026531840 cpu:              17.9 elap:               0.9
 (Enter /usr/local/intel/g16/l303.exe)
 DipDrv:  MaxL=1.
 Leave Link  303 at Tue Jan  7 16:43:10 2025, MaxMem=  4026531840 cpu:               2.0 elap:               0.1
 (Enter /usr/local/intel/g16/l401.exe)
 ExpMin= 9.52D-02 ExpMax= 2.70D+04 ExpMxC= 9.22D+02 IAcc=3 IRadAn=         5 AccDes= 0.00D+00
 Harris functional with IExCor= 1009 and IRadAn=       5 diagonalized for initial guess.
 HarFok:  IExCor= 1009 AccDes= 0.00D+00 IRadAn=         5 IDoV= 1 UseB2=F ITyADJ=14
 ICtDFT=  3500011 ScaDFX=  1.000000  1.000000  1.000000  1.000000
 FoFCou: FMM=F IPFlag=           0 FMFlag=      100000 FMFlg1=           0
         NFxFlg=           0 DoJE=T BraDBF=F KetDBF=T FulRan=T
         wScrn=  0.000000 ICntrl=       500 IOpCl=  0 I1Cent=   200000004 NGrid=           0
         NMat0=    1 NMatS0=      1 NMatT0=    0 NMatD0=    1 NMtDS0=    0 NMtDT0=    0
 Petite list used in FoFCou.
 Harris En= -637.060900630275    
 JPrj=0 DoOrth=F DoCkMO=F.
 Initial guess <Sx>= 0.0000 <Sy>= 0.0000 <Sz>= 0.5000 <S**2>= 0.7500 S= 0.5000
 Leave Link  401 at Tue Jan  7 16:43:14 2025, MaxMem=  4026531840 cpu:              70.4 elap:               3.5
 (Enter /usr/local/intel/g16/l502.exe)
 Integral symmetry usage will be decided dynamically.
 UHF open shell SCF:
 Using DIIS extrapolation, IDIIS=  1040.
 NGot=  4026531840 LenX=  4025640594 LenY=  4025204334
 Requested convergence on RMS density matrix=1.00D-08 within 128 cycles.
 Requested convergence on MAX density matrix=1.00D-06.
 Requested convergence on             energy=1.00D-06.
 No special actions if energy rises.
 Fock matrices will be formed incrementally for  20 cycles.
 Integral accuracy reduced to 1.0D-05 until final iterations.

 Cycle   1  Pass 0  IDiag  1:
 FoFJK:  IHMeth= 1 ICntrl=       0 DoSepK=F KAlg= 0 I1Cent=           0 FoldK=F
 IRaf= 890000000 NMat=       1 IRICut=       1 DoRegI=T DoRafI=F ISym2E= 0 IDoP0=0 IntGTp=1.
 FoFCou: FMM=F IPFlag=           0 FMFlag=      100000 FMFlg1=           0
         NFxFlg=           0 DoJE=F BraDBF=F KetDBF=F FulRan=T
         wScrn=  0.000000 ICntrl=         0 IOpCl=  1 I1Cent=           0 NGrid=           0
         NMat0=    1 NMatS0=      1 NMatT0=    0 NMatD0=    1 NMtDS0=    0 NMtDT0=    0
 Symmetry not used in FoFCou.
 E= -636.775623960135    
 DIIS: error= 2.43D-02 at cycle   1 NSaved=   1.
 NSaved= 1 IEnMin= 1 EnMin= -636.775623960135     IErMin= 1 ErrMin= 2.43D-02
 ErrMax= 2.43D-02  0.00D+00 EMaxC= 1.00D-01 BMatC= 2.32D+00 BMatP= 2.32D+00
 IDIUse=3 WtCom= 7.57D-01 WtEn= 2.43D-01
 Coeff-Com:  0.100D+01
 Coeff-En:   0.100D+01
 Coeff:      0.100D+01
 Gap=     0.380 Goal=   None    Shift=    0.000
 Gap=     0.210 Goal=   None    Shift=    0.000
 GapD=    0.210 DampG=1.000 DampE=0.500 DampFc=0.5000 IDamp=-1.
 Damping current iteration by 5.00D-01
 RMSDP=2.49D-03 MaxDP=1.48D-01              OVMax= 1.83D-01

 Cycle   2  Pass 0  IDiag  1:
 RMSU=  1.23D-03    CP:  9.73D-01
 E= -637.024871377799     Delta-E=       -0.249247417664 Rises=F Damp=T
 DIIS: error= 5.29D-03 at cycle   2 NSaved=   2.
 NSaved= 2 IEnMin= 2 EnMin= -637.024871377799     IErMin= 2 ErrMin= 5.29D-03
 ErrMax= 5.29D-03  0.00D+00 EMaxC= 1.00D-01 BMatC= 1.90D-01 BMatP= 2.32D+00
 IDIUse=3 WtCom= 9.47D-01 WtEn= 5.29D-02
 Coeff-Com: -0.465D-01 0.105D+01
 Coeff-En:   0.000D+00 0.100D+01
 Coeff:     -0.440D-01 0.104D+01
 Gap=     0.352 Goal=   None    Shift=    0.000
 Gap=     0.277 Goal=   None    Shift=    0.000
 RMSDP=1.13D-03 MaxDP=8.11D-02 DE=-2.49D-01 OVMax= 1.47D-01

 Cycle   3  Pass 0  IDiag  1:
 RMSU=  1.05D-03    CP:  9.53D-01  1.33D+00
 E= -637.259386365254     Delta-E=       -0.234514987455 Rises=F Damp=F
 DIIS: error= 5.47D-03 at cycle   3 NSaved=   3.
 NSaved= 3 IEnMin= 3 EnMin= -637.259386365254     IErMin= 2 ErrMin= 5.29D-03
 ErrMax= 5.47D-03  0.00D+00 EMaxC= 1.00D-01 BMatC= 1.27D-01 BMatP= 1.90D-01
 IDIUse=3 WtCom= 9.45D-01 WtEn= 5.47D-02
 Coeff-Com: -0.845D-01 0.494D+00 0.591D+00
 Coeff-En:   0.000D+00 0.000D+00 0.100D+01
 Coeff:     -0.799D-01 0.467D+00 0.613D+00
 Gap=     0.285 Goal=   None    Shift=    0.000
 Gap=     0.273 Goal=   None    Shift=    0.000
 RMSDP=3.74D-04 MaxDP=2.60D-02 DE=-2.35D-01 OVMax= 9.01D-02

 Cycle   4  Pass 0  IDiag  1:
 RMSU=  3.48D-04    CP:  9.56D-01  1.43D+00  9.33D-01
 E= -637.277315470139     Delta-E=       -0.017929104884 Rises=F Damp=F
 DIIS: error= 2.33D-03 at cycle   4 NSaved=   4.
 NSaved= 4 IEnMin= 4 EnMin= -637.277315470139     IErMin= 4 ErrMin= 2.33D-03
 ErrMax= 2.33D-03  0.00D+00 EMaxC= 1.00D-01 BMatC= 3.34D-02 BMatP= 1.27D-01
 IDIUse=3 WtCom= 9.77D-01 WtEn= 2.33D-02
 Coeff-Com: -0.299D-01 0.906D-01 0.364D+00 0.575D+00
 Coeff-En:   0.000D+00 0.000D+00 0.217D+00 0.783D+00
 Coeff:     -0.292D-01 0.885D-01 0.361D+00 0.580D+00
 Gap=     0.284 Goal=   None    Shift=    0.000
 Gap=     0.276 Goal=   None    Shift=    0.000
 RMSDP=1.76D-04 MaxDP=1.32D-02 DE=-1.79D-02 OVMax= 2.06D-02

 Cycle   5  Pass 0  IDiag  1:
 RMSU=  1.37D-04    CP:  9.53D-01  1.41D+00  9.69D-01  7.17D-01
 E= -637.283590289279     Delta-E=       -0.006274819140 Rises=F Damp=F
 DIIS: error= 3.57D-04 at cycle   5 NSaved=   5.
 NSaved= 5 IEnMin= 5 EnMin= -637.283590289279     IErMin= 5 ErrMin= 3.57D-04
 ErrMax= 3.57D-04  0.00D+00 EMaxC= 1.00D-01 BMatC= 6.42D-04 BMatP= 3.34D-02
 IDIUse=3 WtCom= 9.96D-01 WtEn= 3.57D-03
 Coeff-Com: -0.525D-02 0.638D-02 0.107D+00 0.200D+00 0.692D+00
 Coeff-En:   0.000D+00 0.000D+00 0.000D+00 0.000D+00 0.100D+01
 Coeff:     -0.523D-02 0.635D-02 0.107D+00 0.199D+00 0.693D+00
 Gap=     0.280 Goal=   None    Shift=    0.000
 Gap=     0.278 Goal=   None    Shift=    0.000
 RMSDP=4.55D-05 MaxDP=5.34D-03 DE=-6.27D-03 OVMax= 9.07D-03

 Cycle   6  Pass 0  IDiag  1:
 RMSU=  4.16D-05    CP:  9.53D-01  1.41D+00  9.80D-01  7.48D-01  1.04D+00
 E= -637.283770213638     Delta-E=       -0.000179924359 Rises=F Damp=F
 DIIS: error= 1.69D-04 at cycle   6 NSaved=   6.
 NSaved= 6 IEnMin= 6 EnMin= -637.283770213638     IErMin= 6 ErrMin= 1.69D-04
 ErrMax= 1.69D-04  0.00D+00 EMaxC= 1.00D-01 BMatC= 1.51D-04 BMatP= 6.42D-04
 IDIUse=3 WtCom= 9.98D-01 WtEn= 1.69D-03
 Coeff-Com:  0.317D-02-0.113D-01-0.766D-02-0.208D-01 0.252D+00 0.784D+00
 Coeff-En:   0.000D+00 0.000D+00 0.000D+00 0.000D+00 0.000D+00 0.100D+01
 Coeff:      0.317D-02-0.113D-01-0.765D-02-0.207D-01 0.252D+00 0.784D+00
 Gap=     0.282 Goal=   None    Shift=    0.000
 Gap=     0.277 Goal=   None    Shift=    0.000
 RMSDP=3.54D-05 MaxDP=2.61D-03 DE=-1.80D-04 OVMax= 3.88D-03

 Cycle   7  Pass 0  IDiag  1:
 RMSU=  2.05D-05    CP:  9.53D-01  1.41D+00  9.86D-01  7.57D-01  1.23D+00
                    CP:  1.21D+00
 E= -637.283825931060     Delta-E=       -0.000055717423 Rises=F Damp=F
 DIIS: error= 8.13D-05 at cycle   7 NSaved=   7.
 NSaved= 7 IEnMin= 7 EnMin= -637.283825931060     IErMin= 7 ErrMin= 8.13D-05
 ErrMax= 8.13D-05  0.00D+00 EMaxC= 1.00D-01 BMatC= 3.33D-05 BMatP= 1.51D-04
 IDIUse=1 WtCom= 1.00D+00 WtEn= 0.00D+00
 Coeff-Com:  0.253D-02-0.562D-02-0.229D-01-0.594D-01-0.750D-01 0.217D+00
 Coeff-Com:  0.943D+00
 Coeff:      0.253D-02-0.562D-02-0.229D-01-0.594D-01-0.750D-01 0.217D+00
 Coeff:      0.943D+00
 Gap=     0.282 Goal=   None    Shift=    0.000
 Gap=     0.278 Goal=   None    Shift=    0.000
 RMSDP=3.10D-05 MaxDP=2.37D-03 DE=-5.57D-05 OVMax= 3.64D-03

 Cycle   8  Pass 0  IDiag  1:
 RMSU=  1.37D-05    CP:  9.53D-01  1.41D+00  9.92D-01  7.66D-01  1.37D+00
                    CP:  1.58D+00  1.54D+00
 E= -637.283843751014     Delta-E=       -0.000017819953 Rises=F Damp=F
 DIIS: error= 6.39D-05 at cycle   8 NSaved=   8.
 NSaved= 8 IEnMin= 8 EnMin= -637.283843751014     IErMin= 8 ErrMin= 6.39D-05
 ErrMax= 6.39D-05  0.00D+00 EMaxC= 1.00D-01 BMatC= 1.03D-05 BMatP= 3.33D-05
 IDIUse=1 WtCom= 1.00D+00 WtEn= 0.00D+00
 Coeff-Com:  0.770D-03-0.889D-03-0.830D-02-0.279D-01-0.783D-01-0.393D-01
 Coeff-Com:  0.469D+00 0.685D+00
 Coeff:      0.770D-03-0.889D-03-0.830D-02-0.279D-01-0.783D-01-0.393D-01
 Coeff:      0.469D+00 0.685D+00
 Gap=     0.282 Goal=   None    Shift=    0.000
 Gap=     0.278 Goal=   None    Shift=    0.000
 RMSDP=1.76D-05 MaxDP=1.31D-03 DE=-1.78D-05 OVMax= 1.50D-03

 Cycle   9  Pass 0  IDiag  1:
 RMSU=  9.14D-06    CP:  9.53D-01  1.41D+00  9.95D-01  7.62D-01  1.42D+00
                    CP:  1.73D+00  1.90D+00  1.60D+00
 E= -637.283847993377     Delta-E=       -0.000004242364 Rises=F Damp=F
 DIIS: error= 2.16D-05 at cycle   9 NSaved=   9.
 NSaved= 9 IEnMin= 9 EnMin= -637.283847993377     IErMin= 9 ErrMin= 2.16D-05
 ErrMax= 2.16D-05  0.00D+00 EMaxC= 1.00D-01 BMatC= 1.81D-06 BMatP= 1.03D-05
 IDIUse=1 WtCom= 1.00D+00 WtEn= 0.00D+00
 Coeff-Com: -0.462D-03 0.125D-02 0.564D-02 0.892D-02 0.769D-02-0.766D-01
 Coeff-Com: -0.176D+00 0.193D+00 0.104D+01
 Coeff:     -0.462D-03 0.125D-02 0.564D-02 0.892D-02 0.769D-02-0.766D-01
 Coeff:     -0.176D+00 0.193D+00 0.104D+01
 Gap=     0.282 Goal=   None    Shift=    0.000
 Gap=     0.278 Goal=   None    Shift=    0.000
 RMSDP=2.46D-05 MaxDP=1.04D-03 DE=-4.24D-06 OVMax= 9.96D-04

 Cycle  10  Pass 0  IDiag  1:
 RMSU=  8.46D-06    CP:  9.53D-01  1.42D+00  9.98D-01  7.60D-01  1.45D+00
                    CP:  1.85D+00  2.44D+00  2.63D+00  2.29D+00
 E= -637.283848898390     Delta-E=       -0.000000905012 Rises=F Damp=F
 DIIS: error= 1.08D-05 at cycle  10 NSaved=  10.
 NSaved=10 IEnMin=10 EnMin= -637.283848898390     IErMin=10 ErrMin= 1.08D-05
 ErrMax= 1.08D-05  0.00D+00 EMaxC= 1.00D-01 BMatC= 2.92D-07 BMatP= 1.81D-06
 IDIUse=1 WtCom= 1.00D+00 WtEn= 0.00D+00
 Coeff-Com: -0.216D-03 0.440D-03 0.315D-02 0.628D-02 0.139D-01-0.228D-01
 Coeff-Com: -0.124D+00-0.176D-01 0.341D+00 0.800D+00
 Coeff:     -0.216D-03 0.440D-03 0.315D-02 0.628D-02 0.139D-01-0.228D-01
 Coeff:     -0.124D+00-0.176D-01 0.341D+00 0.800D+00
 Gap=     0.282 Goal=   None    Shift=    0.000
 Gap=     0.278 Goal=   None    Shift=    0.000
 RMSDP=2.21D-05 MaxDP=8.29D-04 DE=-9.05D-07 OVMax= 2.83D-04

 Cycle  11  Pass 0  IDiag  1:
 RMSU=  9.67D-06    CP:  9.53D-01  1.42D+00  1.00D+00  7.58D-01  1.47D+00
                    CP:  1.92D+00  2.83D+00  3.00D+00  3.00D+00  2.17D+00
 E= -637.283850327342     Delta-E=       -0.000001428953 Rises=F Damp=F
 DIIS: error= 1.48D-05 at cycle  11 NSaved=  11.
 NSaved=11 IEnMin=11 EnMin= -637.283850327342     IErMin=10 ErrMin= 1.08D-05
 ErrMax= 1.48D-05  0.00D+00 EMaxC= 1.00D-01 BMatC= 1.36D-07 BMatP= 2.92D-07
 IDIUse=1 WtCom= 1.00D+00 WtEn= 0.00D+00
 Coeff-Com: -0.238D-04 0.122D-04 0.747D-03 0.158D-02 0.583D-02-0.210D-03
 Coeff-Com: -0.326D-01-0.314D-01 0.707D-02 0.364D+00 0.685D+00
 Coeff:     -0.238D-04 0.122D-04 0.747D-03 0.158D-02 0.583D-02-0.210D-03
 Coeff:     -0.326D-01-0.314D-01 0.707D-02 0.364D+00 0.685D+00
 Gap=     0.282 Goal=   None    Shift=    0.000
 Gap=     0.278 Goal=   None    Shift=    0.000
 RMSDP=2.51D-05 MaxDP=9.79D-04 DE=-1.43D-06 OVMax= 8.90D-05

 Cycle  12  Pass 0  IDiag  1:
 RMSU=  8.81D-06    CP:  9.53D-01  1.42D+00  1.00D+00  7.55D-01  1.48D+00
                    CP:  1.98D+00  3.00D+00  3.00D+00  3.00D+00  3.00D+00
                    CP:  2.99D+00
 E= -637.283852762813     Delta-E=       -0.000002435470 Rises=F Damp=F
 DIIS: error= 2.04D-05 at cycle  12 NSaved=  12.
 NSaved=12 IEnMin=12 EnMin= -637.283852762813     IErMin=10 ErrMin= 1.08D-05
 ErrMax= 2.04D-05  0.00D+00 EMaxC= 1.00D-01 BMatC= 1.68D-07 BMatP= 1.36D-07
 IDIUse=1 WtCom= 1.00D+00 WtEn= 0.00D+00
 Coeff-Com: -0.200D-05-0.586D-04 0.652D-03 0.156D-02 0.728D-02 0.442D-02
 Coeff-Com: -0.325D-01-0.540D-01-0.567D-01 0.492D+00 0.122D+01-0.587D+00
 Coeff:     -0.200D-05-0.586D-04 0.652D-03 0.156D-02 0.728D-02 0.442D-02
 Coeff:     -0.325D-01-0.540D-01-0.567D-01 0.492D+00 0.122D+01-0.587D+00
 Gap=     0.282 Goal=   None    Shift=    0.000
 Gap=     0.278 Goal=   None    Shift=    0.000
 RMSDP=2.08D-05 MaxDP=7.90D-04 DE=-2.44D-06 OVMax= 2.48D-05

 Cycle  13  Pass 0  IDiag  1:
 RMSU=  4.02D-06    CP:  9.53D-01  1.42D+00  1.00D+00  7.58D-01  1.47D+00
                    CP:  1.94D+00  2.97D+00  3.00D+00  3.00D+00  2.57D+00
                    CP:  1.31D+00 -3.27D-02
 E= -637.283850830834     Delta-E=        0.000001931978 Rises=F Damp=F
 DIIS: error= 1.60D-05 at cycle  13 NSaved=  13.
 NSaved=13 IEnMin=12 EnMin= -637.283852762813     IErMin=10 ErrMin= 1.08D-05
 ErrMax= 1.60D-05  0.00D+00 EMaxC= 1.00D-01 BMatC= 1.10D-07 BMatP= 1.36D-07
 IDIUse=1 WtCom= 1.00D+00 WtEn= 0.00D+00
 Coeff-Com:  0.105D-03-0.276D-03-0.857D-03-0.153D-02 0.522D-03 0.154D-01
 Coeff-Com:  0.288D-01-0.421D-01-0.228D+00 0.772D-01 0.127D+01-0.263D+01
 Coeff-Com:  0.252D+01
 Coeff:      0.105D-03-0.276D-03-0.857D-03-0.153D-02 0.522D-03 0.154D-01
 Coeff:      0.288D-01-0.421D-01-0.228D+00 0.772D-01 0.127D+01-0.263D+01
 Coeff:      0.252D+01
 Gap=     0.282 Goal=   None    Shift=    0.000
 Gap=     0.278 Goal=   None    Shift=    0.000
 RMSDP=4.21D-05 MaxDP=1.59D-03 DE= 1.93D-06 OVMax= 5.56D-05

 Cycle  14  Pass 0  IDiag  1:
 RMSU=  1.08D-05    CP:  9.53D-01  1.42D+00  9.97D-01  7.65D-01  1.46D+00
                    CP:  1.92D+00  2.45D+00  2.47D+00  1.39D+00  5.94D-01
                    CP: -6.35D-01 -3.49D-01  3.00D+00
 E= -637.283845776288     Delta-E=        0.000005054546 Rises=F Damp=F
 DIIS: error= 8.87D-06 at cycle  14 NSaved=  14.
 NSaved=14 IEnMin=12 EnMin= -637.283852762813     IErMin=14 ErrMin= 8.87D-06
 ErrMax= 8.87D-06  0.00D+00 EMaxC= 1.00D-01 BMatC= 4.72D-08 BMatP= 1.10D-07
 IDIUse=1 WtCom= 1.00D+00 WtEn= 0.00D+00
 Coeff-Com:  0.747D-04-0.193D-03-0.686D-03-0.127D-02-0.321D-03 0.105D-01
 Coeff-Com:  0.237D-01-0.244D-01-0.157D+00 0.157D-02 0.756D+00-0.190D+01
 Coeff-Com:  0.176D+01 0.532D+00
 Coeff:      0.747D-04-0.193D-03-0.686D-03-0.127D-02-0.321D-03 0.105D-01
 Coeff:      0.237D-01-0.244D-01-0.157D+00 0.157D-02 0.756D+00-0.190D+01
 Coeff:      0.176D+01 0.532D+00
 Gap=     0.282 Goal=   None    Shift=    0.000
 Gap=     0.278 Goal=   None    Shift=    0.000
 RMSDP=1.14D-05 MaxDP=4.45D-04 DE= 5.05D-06 OVMax= 3.44D-05

 Cycle  15  Pass 0  IDiag  1:
 RMSU=  3.92D-06    CP:  9.53D-01  1.42D+00  9.96D-01  7.66D-01  1.46D+00
                    CP:  1.92D+00  2.25D+00  2.16D+00  8.78D-01 -2.31D-01
                    CP: -8.14D-01 -1.39D-01  3.00D+00  1.08D+00
 E= -637.283841269274     Delta-E=        0.000004507014 Rises=F Damp=F
 DIIS: error= 4.76D-06 at cycle  15 NSaved=  15.
 NSaved=15 IEnMin=12 EnMin= -637.283852762813     IErMin=15 ErrMin= 4.76D-06
 ErrMax= 4.76D-06  0.00D+00 EMaxC= 1.00D-01 BMatC= 2.13D-08 BMatP= 4.72D-08
 IDIUse=1 WtCom= 1.00D+00 WtEn= 0.00D+00
 Coeff-Com:  0.496D-04-0.135D-03-0.412D-03-0.714D-03 0.419D-03 0.759D-02
 Coeff-Com:  0.130D-01-0.219D-01-0.110D+00 0.507D-01 0.594D+00-0.104D+01
 Coeff-Com:  0.819D+00-0.765D-01 0.764D+00
 Coeff:      0.496D-04-0.135D-03-0.412D-03-0.714D-03 0.419D-03 0.759D-02
 Coeff:      0.130D-01-0.219D-01-0.110D+00 0.507D-01 0.594D+00-0.104D+01
 Coeff:      0.819D+00-0.765D-01 0.764D+00
 Gap=     0.282 Goal=   None    Shift=    0.000
 Gap=     0.278 Goal=   None    Shift=    0.000
 RMSDP=6.82D-06 MaxDP=4.04D-04 DE= 4.51D-06 OVMax= 2.86D-05

 Initial convergence to 1.0D-05 achieved.  Increase integral accuracy.
 Cycle  16  Pass 1  IDiag  1:
 E= -637.283908428296     Delta-E=       -0.000067159022 Rises=F Damp=F
 DIIS: error= 3.52D-04 at cycle   1 NSaved=   1.
 NSaved= 1 IEnMin= 1 EnMin= -637.283908428296     IErMin= 1 ErrMin= 3.52D-04
 ErrMax= 3.52D-04  0.00D+00 EMaxC= 1.00D-01 BMatC= 8.56D-05 BMatP= 8.56D-05
 IDIUse=3 WtCom= 9.96D-01 WtEn= 3.52D-03
 Coeff-Com:  0.100D+01
 Coeff-En:   0.100D+01
 Coeff:      0.100D+01
 Gap=     0.282 Goal=   None    Shift=    0.000
 Gap=     0.278 Goal=   None    Shift=    0.000
 RMSDP=6.82D-06 MaxDP=4.04D-04 DE=-6.72D-05 OVMax= 6.31D-04

 Cycle  17  Pass 1  IDiag  1:
 RMSU=  6.97D-04    CP:  9.84D-01
 E= -637.283919909988     Delta-E=       -0.000011481692 Rises=F Damp=F
 DIIS: error= 8.71D-06 at cycle   2 NSaved=   2.
 NSaved= 2 IEnMin= 2 EnMin= -637.283919909988     IErMin= 2 ErrMin= 8.71D-06
 ErrMax= 8.71D-06  0.00D+00 EMaxC= 1.00D-01 BMatC= 5.27D-08 BMatP= 8.56D-05
 IDIUse=1 WtCom= 1.00D+00 WtEn= 0.00D+00
 Coeff-Com: -0.154D-01 0.102D+01
 Coeff:     -0.154D-01 0.102D+01
 Gap=     0.282 Goal=   None    Shift=    0.000
 Gap=     0.278 Goal=   None    Shift=    0.000
 RMSDP=2.34D-05 MaxDP=1.12D-03 DE=-1.15D-05 OVMax= 3.69D-05

 Cycle  18  Pass 1  IDiag  1:
 RMSU=  9.82D-06    CP:  9.84D-01  1.03D+00
 E= -637.283919925902     Delta-E=       -0.000000015914 Rises=F Damp=F
 DIIS: error= 2.04D-06 at cycle   3 NSaved=   3.
 NSaved= 3 IEnMin= 3 EnMin= -637.283919925902     IErMin= 3 ErrMin= 2.04D-06
 ErrMax= 2.04D-06  0.00D+00 EMaxC= 1.00D-01 BMatC= 1.12D-08 BMatP= 5.27D-08
 IDIUse=1 WtCom= 1.00D+00 WtEn= 0.00D+00
 Coeff-Com: -0.503D-02 0.312D+00 0.693D+00
 Coeff:     -0.503D-02 0.312D+00 0.693D+00
 Gap=     0.282 Goal=   None    Shift=    0.000
 Gap=     0.278 Goal=   None    Shift=    0.000
 RMSDP=5.97D-07 MaxDP=2.66D-05 DE=-1.59D-08 OVMax= 2.34D-05

 Cycle  19  Pass 1  IDiag  1:
 RMSU=  2.42D-07    CP:  9.84D-01  1.03D+00  1.03D+00
 E= -637.283919928030     Delta-E=       -0.000000002128 Rises=F Damp=F
 DIIS: error= 1.53D-06 at cycle   4 NSaved=   4.
 NSaved= 4 IEnMin= 4 EnMin= -637.283919928030     IErMin= 4 ErrMin= 1.53D-06
 ErrMax= 1.53D-06  0.00D+00 EMaxC= 1.00D-01 BMatC= 4.29D-09 BMatP= 1.12D-08
 IDIUse=1 WtCom= 1.00D+00 WtEn= 0.00D+00
 Coeff-Com:  0.194D-03-0.235D-01 0.368D+00 0.656D+00
 Coeff:      0.194D-03-0.235D-01 0.368D+00 0.656D+00
 Gap=     0.282 Goal=   None    Shift=    0.000
 Gap=     0.278 Goal=   None    Shift=    0.000
 RMSDP=3.06D-07 MaxDP=1.85D-05 DE=-2.13D-09 OVMax= 1.28D-05

 Cycle  20  Pass 1  IDiag  1:
 RMSU=  1.15D-07    CP:  9.84D-01  1.03D+00  1.05D+00  1.40D+00
 E= -637.283919929156     Delta-E=       -0.000000001126 Rises=F Damp=F
 DIIS: error= 3.35D-07 at cycle   5 NSaved=   5.
 NSaved= 5 IEnMin= 5 EnMin= -637.283919929156     IErMin= 5 ErrMin= 3.35D-07
 ErrMax= 3.35D-07  0.00D+00 EMaxC= 1.00D-01 BMatC= 5.44D-10 BMatP= 4.29D-09
 IDIUse=1 WtCom= 1.00D+00 WtEn= 0.00D+00
 Coeff-Com:  0.561D-03-0.405D-01 0.118D+00 0.330D+00 0.591D+00
 Coeff:      0.561D-03-0.405D-01 0.118D+00 0.330D+00 0.591D+00
 Gap=     0.282 Goal=   None    Shift=    0.000
 Gap=     0.278 Goal=   None    Shift=    0.000
 RMSDP=6.32D-08 MaxDP=7.49D-06 DE=-1.13D-09 OVMax= 7.11D-06

 Cycle  21  Pass 1  IDiag  1:
 RMSU=  3.69D-08    CP:  9.84D-01  1.03D+00  1.05D+00  1.55D+00  1.15D+00
 E= -637.283919929346     Delta-E=       -0.000000000189 Rises=F Damp=F
 DIIS: error= 1.84D-07 at cycle   6 NSaved=   6.
 NSaved= 6 IEnMin= 6 EnMin= -637.283919929346     IErMin= 6 ErrMin= 1.84D-07
 ErrMax= 1.84D-07  0.00D+00 EMaxC= 1.00D-01 BMatC= 8.59D-11 BMatP= 5.44D-10
 IDIUse=1 WtCom= 1.00D+00 WtEn= 0.00D+00
 Coeff-Com:  0.983D-04-0.466D-02-0.666D-01-0.837D-01 0.119D+00 0.104D+01
 Coeff:      0.983D-04-0.466D-02-0.666D-01-0.837D-01 0.119D+00 0.104D+01
 Gap=     0.282 Goal=   None    Shift=    0.000
 Gap=     0.278 Goal=   None    Shift=    0.000
 RMSDP=5.48D-08 MaxDP=7.22D-06 DE=-1.89D-10 OVMax= 1.07D-05

 Cycle  22  Pass 1  IDiag  1:
 RMSU=  2.41D-08    CP:  9.84D-01  1.03D+00  1.05D+00  1.67D+00  1.36D+00
                    CP:  1.76D+00
 E= -637.283919929451     Delta-E=       -0.000000000106 Rises=F Damp=F
 DIIS: error= 1.35D-07 at cycle   7 NSaved=   7.
 NSaved= 7 IEnMin= 7 EnMin= -637.283919929451     IErMin= 7 ErrMin= 1.35D-07
 ErrMax= 1.35D-07  0.00D+00 EMaxC= 1.00D-01 BMatC= 5.10D-11 BMatP= 8.59D-11
 IDIUse=1 WtCom= 1.00D+00 WtEn= 0.00D+00
 Coeff-Com: -0.136D-03 0.113D-01-0.795D-01-0.159D+00-0.142D+00 0.620D+00
 Coeff-Com:  0.750D+00
 Coeff:     -0.136D-03 0.113D-01-0.795D-01-0.159D+00-0.142D+00 0.620D+00
 Coeff:      0.750D+00
 Gap=     0.282 Goal=   None    Shift=    0.000
 Gap=     0.278 Goal=   None    Shift=    0.000
 RMSDP=3.02D-08 MaxDP=3.54D-06 DE=-1.06D-10 OVMax= 8.00D-06

 Cycle  23  Pass 1  IDiag  1:
 RMSU=  1.25D-08    CP:  9.84D-01  1.03D+00  1.05D+00  1.72D+00  1.46D+00
                    CP:  2.15D+00  1.47D+00
 E= -637.283919929501     Delta-E=       -0.000000000049 Rises=F Damp=F
 DIIS: error= 7.01D-08 at cycle   8 NSaved=   8.
 NSaved= 8 IEnMin= 8 EnMin= -637.283919929501     IErMin= 8 ErrMin= 7.01D-08
 ErrMax= 7.01D-08  0.00D+00 EMaxC= 1.00D-01 BMatC= 1.00D-11 BMatP= 5.10D-11
 IDIUse=1 WtCom= 1.00D+00 WtEn= 0.00D+00
 Coeff-Com: -0.698D-04 0.470D-02-0.325D-02-0.192D-01-0.869D-01-0.131D+00
 Coeff-Com:  0.206D+00 0.103D+01
 Coeff:     -0.698D-04 0.470D-02-0.325D-02-0.192D-01-0.869D-01-0.131D+00
 Coeff:      0.206D+00 0.103D+01
 Gap=     0.282 Goal=   None    Shift=    0.000
 Gap=     0.278 Goal=   None    Shift=    0.000
 RMSDP=1.34D-08 MaxDP=1.22D-06 DE=-4.93D-11 OVMax= 6.20D-06

 Cycle  24  Pass 1  IDiag  1:
 RMSU=  9.07D-09    CP:  9.84D-01  1.03D+00  1.05D+00  1.73D+00  1.46D+00
                    CP:  2.29D+00  1.75D+00  1.35D+00
 E= -637.283919929519     Delta-E=       -0.000000000019 Rises=F Damp=F
 DIIS: error= 3.65D-08 at cycle   9 NSaved=   9.
 NSaved= 9 IEnMin= 9 EnMin= -637.283919929519     IErMin= 9 ErrMin= 3.65D-08
 ErrMax= 3.65D-08  0.00D+00 EMaxC= 1.00D-01 BMatC= 3.37D-12 BMatP= 1.00D-11
 IDIUse=1 WtCom= 1.00D+00 WtEn= 0.00D+00
 Coeff-Com:  0.254D-04-0.253D-02 0.298D-01 0.546D-01 0.182D-01-0.286D+00
 Coeff-Com: -0.226D+00 0.408D+00 0.100D+01
 Coeff:      0.254D-04-0.253D-02 0.298D-01 0.546D-01 0.182D-01-0.286D+00
 Coeff:     -0.226D+00 0.408D+00 0.100D+01
 Gap=     0.282 Goal=   None    Shift=    0.000
 Gap=     0.278 Goal=   None    Shift=    0.000
 RMSDP=1.08D-08 MaxDP=8.84D-07 DE=-1.89D-11 OVMax= 4.39D-06

 Cycle  25  Pass 1  IDiag  1:
 RMSU=  3.47D-09    CP:  9.84D-01  1.03D+00  1.05D+00  1.71D+00  1.44D+00
                    CP:  2.31D+00  1.82D+00  1.69D+00  1.87D+00
 E= -637.283919929525     Delta-E=       -0.000000000006 Rises=F Damp=F
 DIIS: error= 1.31D-08 at cycle  10 NSaved=  10.
 NSaved=10 IEnMin=10 EnMin= -637.283919929525     IErMin=10 ErrMin= 1.31D-08
 ErrMax= 1.31D-08  0.00D+00 EMaxC= 1.00D-01 BMatC= 5.58D-13 BMatP= 3.37D-12
 IDIUse=1 WtCom= 1.00D+00 WtEn= 0.00D+00
 Coeff-Com:  0.225D-04-0.178D-02 0.100D-01 0.204D-01 0.228D-01-0.679D-01
 Coeff-Com: -0.109D+00-0.627D-01 0.319D+00 0.870D+00
 Coeff:      0.225D-04-0.178D-02 0.100D-01 0.204D-01 0.228D-01-0.679D-01
 Coeff:     -0.109D+00-0.627D-01 0.319D+00 0.870D+00
 Gap=     0.282 Goal=   None    Shift=    0.000
 Gap=     0.278 Goal=   None    Shift=    0.000
 RMSDP=4.57D-09 MaxDP=5.74D-07 DE=-5.91D-12 OVMax= 1.42D-06

 SCF Done:  E(UM062X) =  -637.283919930     A.U. after   25 cycles
            NFock= 25  Conv=0.46D-08     -V/T= 2.0060
 <Sx>= 0.0000 <Sy>= 0.0000 <Sz>= 0.5000 <S**2>= 0.7558 S= 0.5029
 <L.S>=  0.00000000000    
 KE= 6.334546469904D+02 PE=-3.565050455831D+03 EE= 1.251837229166D+03
 Annihilation of the first spin contaminant:
 S**2 before annihilation     0.7558,   after     0.7500
 Leave Link  502 at Tue Jan  7 16:53:27 2025, MaxMem=  4026531840 cpu:           12259.4 elap:             613.2
 (Enter /usr/local/intel/g16/l601.exe)
 Copying SCF densities to generalized density rwf, IOpCl= 1 IROHF=0.

 **********************************************************************

            Population analysis using the SCF Density.

 **********************************************************************

 Orbital symmetries:
 Alpha Orbitals:
       Occupied  (A) (A) (A) (A) (A) (A) (A) (A) (A) (A) (A) (A)
                 (A) (A) (A) (A) (A) (A) (A) (A) (A) (A) (A) (A)
                 (A) (A) (A) (A) (A) (A) (A) (A) (A) (A) (A) (A)
                 (A) (A) (A) (A) (A) (A) (A) (A) (A) (A) (A) (A)
                 (A) (A) (A) (A) (A) (A) (A) (A) (A)
       Virtual   (A) (A) (A) (A) (A) (A) (A) (A) (A) (A) (A) (A)
                 (A) (A) (A) (A) (A) (A) (A) (A) (A) (A) (A) (A)
                 (A) (A) (A) (A) (A) (A) (A) (A) (A) (A) (A) (A)
                 (A) (A) (A) (A) (A) (A) (A) (A) (A) (A) (A) (A)
                 (A) (A) (A) (A) (A) (A) (A) (A) (A) (A) (A) (A)
                 (A) (A) (A) (A) (A) (A) (A) (A) (A) (A) (A) (A)
                 (A) (A) (A) (A) (A) (A) (A) (A) (A) (A) (A) (A)
                 (A) (A) (A) (A) (A) (A) (A) (A) (A) (A) (A) (A)
                 (A) (A) (A) (A) (A) (A) (A) (A) (A) (A) (A) (A)
                 (A) (A) (A) (A) (A) (A) (A) (A) (A) (A) (A) (A)
                 (A) (A) (A) (A) (A) (A) (A) (A) (A) (A) (A) (A)
                 (A) (A) (A) (A) (A) (A) (A) (A) (A) (A) (A) (A)
                 (A) (A) (A) (A) (A) (A) (A) (A) (A) (A) (A) (A)
                 (A) (A) (A) (A) (A) (A) (A) (A) (A) (A) (A) (A)
                 (A) (A) (A) (A) (A) (A) (A) (A) (A) (A) (A) (A)
                 (A) (A) (A) (A) (A) (A) (A) (A) (A) (A) (A) (A)
                 (A) (A) (A) (A) (A) (A) (A) (A) (A) (A) (A) (A)
                 (A) (A) (A) (A) (A) (A) (A) (A) (A) (A) (A) (A)
                 (A) (A) (A) (A) (A) (A) (A) (A) (A) (A) (A) (A)
                 (A) (A) (A) (A) (A) (A) (A) (A) (A) (A) (A) (A)
                 (A) (A) (A) (A) (A) (A) (A) (A) (A) (A) (A) (A)
                 (A) (A) (A) (A) (A) (A) (A) (A) (A) (A) (A) (A)
                 (A) (A) (A) (A) (A) (A) (A) (A) (A) (A) (A) (A)
                 (A) (A) (A) (A) (A) (A) (A) (A) (A) (A) (A) (A)
                 (A) (A) (A) (A) (A) (A) (A) (A) (A) (A) (A) (A)
                 (A) (A) (A) (A) (A) (A) (A) (A) (A) (A) (A) (A)
                 (A) (A) (A) (A) (A) (A) (A) (A) (A) (A) (A) (A)
                 (A) (A) (A) (A) (A) (A) (A) (A) (A) (A) (A) (A)
                 (A) (A) (A) (A) (A) (A) (A) (A) (A) (A) (A) (A)
                 (A) (A) (A) (A) (A) (A) (A) (A) (A) (A) (A) (A)
                 (A) (A) (A) (A) (A) (A) (A) (A) (A) (A) (A) (A)
                 (A) (A) (A) (A) (A) (A) (A) (A) (A) (A) (A) (A)
                 (A) (A) (A) (A) (A) (A) (A) (A) (A) (A) (A) (A)
                 (A) (A) (A) (A) (A) (A) (A) (A) (A) (A) (A) (A)
                 (A) (A) (A) (A) (A) (A) (A) (A) (A) (A) (A) (A)
                 (A) (A) (A) (A) (A) (A) (A) (A) (A) (A) (A) (A)
                 (A) (A) (A) (A) (A) (A) (A) (A) (A) (A) (A) (A)
                 (A) (A) (A) (A) (A) (A) (A) (A) (A) (A) (A) (A)
                 (A) (A) (A) (A) (A) (A) (A) (A) (A) (A) (A) (A)
                 (A) (A) (A) (A) (A) (A) (A) (A) (A) (A) (A) (A)
                 (A) (A) (A) (A) (A) (A) (A) (A) (A) (A) (A) (A)
                 (A) (A) (A) (A) (A) (A) (A) (A) (A) (A) (A) (A)
                 (A) (A) (A) (A) (A) (A) (A) (A) (A) (A) (A) (A)
                 (A) (A) (A) (A) (A) (A) (A) (A) (A) (A) (A) (A)
 Beta  Orbitals:
       Occupied  (A) (A) (A) (A) (A) (A) (A) (A) (A) (A) (A) (A)
                 (A) (A) (A) (A) (A) (A) (A) (A) (A) (A) (A) (A)
                 (A) (A) (A) (A) (A) (A) (A) (A) (A) (A) (A) (A)
                 (A) (A) (A) (A) (A) (A) (A) (A) (A) (A) (A) (A)
                 (A) (A) (A) (A) (A) (A) (A) (A)
       Virtual   (A) (A) (A) (A) (A) (A) (A) (A) (A) (A) (A) (A)
                 (A) (A) (A) (A) (A) (A) (A) (A) (A) (A) (A) (A)
                 (A) (A) (A) (A) (A) (A) (A) (A) (A) (A) (A) (A)
                 (A) (A) (A) (A) (A) (A) (A) (A) (A) (A) (A) (A)
                 (A) (A) (A) (A) (A) (A) (A) (A) (A) (A) (A) (A)
                 (A) (A) (A) (A) (A) (A) (A) (A) (A) (A) (A) (A)
                 (A) (A) (A) (A) (A) (A) (A) (A) (A) (A) (A) (A)
                 (A) (A) (A) (A) (A) (A) (A) (A) (A) (A) (A) (A)
                 (A) (A) (A) (A) (A) (A) (A) (A) (A) (A) (A) (A)
                 (A) (A) (A) (A) (A) (A) (A) (A) (A) (A) (A) (A)
                 (A) (A) (A) (A) (A) (A) (A) (A) (A) (A) (A) (A)
                 (A) (A) (A) (A) (A) (A) (A) (A) (A) (A) (A) (A)
                 (A) (A) (A) (A) (A) (A) (A) (A) (A) (A) (A) (A)
                 (A) (A) (A) (A) (A) (A) (A) (A) (A) (A) (A) (A)
                 (A) (A) (A) (A) (A) (A) (A) (A) (A) (A) (A) (A)
                 (A) (A) (A) (A) (A) (A) (A) (A) (A) (A) (A) (A)
                 (A) (A) (A) (A) (A) (A) (A) (A) (A) (A) (A) (A)
                 (A) (A) (A) (A) (A) (A) (A) (A) (A) (A) (A) (A)
                 (A) (A) (A) (A) (A) (A) (A) (A) (A) (A) (A) (A)
                 (A) (A) (A) (A) (A) (A) (A) (A) (A) (A) (A) (A)
                 (A) (A) (A) (A) (A) (A) (A) (A) (A) (A) (A) (A)
                 (A) (A) (A) (A) (A) (A) (A) (A) (A) (A) (A) (A)
                 (A) (A) (A) (A) (A) (A) (A) (A) (A) (A) (A) (A)
                 (A) (A) (A) (A) (A) (A) (A) (A) (A) (A) (A) (A)
                 (A) (A) (A) (A) (A) (A) (A) (A) (A) (A) (A) (A)
                 (A) (A) (A) (A) (A) (A) (A) (A) (A) (A) (A) (A)
                 (A) (A) (A) (A) (A) (A) (A) (A) (A) (A) (A) (A)
                 (A) (A) (A) (A) (A) (A) (A) (A) (A) (A) (A) (A)
                 (A) (A) (A) (A) (A) (A) (A) (A) (A) (A) (A) (A)
                 (A) (A) (A) (A) (A) (A) (A) (A) (A) (A) (A) (A)
                 (A) (A) (A) (A) (A) (A) (A) (A) (A) (A) (A) (A)
                 (A) (A) (A) (A) (A) (A) (A) (A) (A) (A) (A) (A)
                 (A) (A) (A) (A) (A) (A) (A) (A) (A) (A) (A) (A)
                 (A) (A) (A) (A) (A) (A) (A) (A) (A) (A) (A) (A)
                 (A) (A) (A) (A) (A) (A) (A) (A) (A) (A) (A) (A)
                 (A) (A) (A) (A) (A) (A) (A) (A) (A) (A) (A) (A)
                 (A) (A) (A) (A) (A) (A) (A) (A) (A) (A) (A) (A)
                 (A) (A) (A) (A) (A) (A) (A) (A) (A) (A) (A) (A)
                 (A) (A) (A) (A) (A) (A) (A) (A) (A) (A) (A) (A)
                 (A) (A) (A) (A) (A) (A) (A) (A) (A) (A) (A) (A)
                 (A) (A) (A) (A) (A) (A) (A) (A) (A) (A) (A) (A)
                 (A) (A) (A) (A) (A) (A) (A) (A) (A) (A) (A) (A)
                 (A) (A) (A) (A) (A) (A) (A) (A) (A) (A) (A) (A)
                 (A) (A) (A) (A) (A) (A) (A) (A) (A) (A) (A) (A)
                 (A)
 The electronic state is 2-A.
 Alpha  occ. eigenvalues --  -19.63007 -14.83932 -10.58648 -10.58495 -10.55789
 Alpha  occ. eigenvalues --  -10.55102 -10.55025 -10.54916 -10.54838 -10.54533
 Alpha  occ. eigenvalues --  -10.54378 -10.53971 -10.52629 -10.52390 -10.51914
 Alpha  occ. eigenvalues --   -1.19636  -0.97566  -0.94843  -0.91313  -0.85949
 Alpha  occ. eigenvalues --   -0.84474  -0.83559  -0.78561  -0.77061  -0.75337
 Alpha  occ. eigenvalues --   -0.69571  -0.68420  -0.66031  -0.63330  -0.59701
 Alpha  occ. eigenvalues --   -0.58787  -0.55196  -0.55068  -0.53900  -0.52071
 Alpha  occ. eigenvalues --   -0.50851  -0.50604  -0.49195  -0.48130  -0.47227
 Alpha  occ. eigenvalues --   -0.46259  -0.46124  -0.45193  -0.44803  -0.44325
 Alpha  occ. eigenvalues --   -0.43622  -0.41919  -0.41238  -0.40764  -0.40376
 Alpha  occ. eigenvalues --   -0.39354  -0.38741  -0.38550  -0.34227  -0.31163
 Alpha  occ. eigenvalues --   -0.30599  -0.27061
 Alpha virt. eigenvalues --    0.01156   0.01427   0.05527   0.07955   0.08412
 Alpha virt. eigenvalues --    0.08912   0.09768   0.11328   0.11548   0.12091
 Alpha virt. eigenvalues --    0.12423   0.12680   0.13183   0.13284   0.14246
 Alpha virt. eigenvalues --    0.15399   0.15985   0.16534   0.16702   0.17276
 Alpha virt. eigenvalues --    0.17980   0.18360   0.18559   0.19265   0.19725
 Alpha virt. eigenvalues --    0.19850   0.20215   0.20894   0.22171   0.23111
 Alpha virt. eigenvalues --    0.23493   0.24452   0.24605   0.24940   0.25263
 Alpha virt. eigenvalues --    0.26121   0.26713   0.27373   0.27845   0.28337
 Alpha virt. eigenvalues --    0.28816   0.30011   0.30280   0.31032   0.31879
 Alpha virt. eigenvalues --    0.32259   0.32461   0.33141   0.33595   0.34847
 Alpha virt. eigenvalues --    0.35679   0.36570   0.37498   0.38174   0.38572
 Alpha virt. eigenvalues --    0.39466   0.40148   0.40572   0.40673   0.42196
 Alpha virt. eigenvalues --    0.42363   0.42517   0.43220   0.43654   0.44459
 Alpha virt. eigenvalues --    0.44880   0.45283   0.45935   0.46511   0.46884
 Alpha virt. eigenvalues --    0.47187   0.47868   0.48213   0.48713   0.49414
 Alpha virt. eigenvalues --    0.49608   0.49905   0.50111   0.50505   0.50730
 Alpha virt. eigenvalues --    0.50797   0.50999   0.51981   0.52690   0.53122
 Alpha virt. eigenvalues --    0.53649   0.54161   0.54544   0.55167   0.56018
 Alpha virt. eigenvalues --    0.57085   0.57285   0.58431   0.59267   0.60376
 Alpha virt. eigenvalues --    0.61574   0.62639   0.63468   0.64722   0.65816
 Alpha virt. eigenvalues --    0.66015   0.67051   0.68732   0.69311   0.69502
 Alpha virt. eigenvalues --    0.71145   0.71764   0.72392   0.73099   0.74250
 Alpha virt. eigenvalues --    0.75375   0.76012   0.76870   0.77550   0.79109
 Alpha virt. eigenvalues --    0.79611   0.80998   0.81632   0.82329   0.84517
 Alpha virt. eigenvalues --    0.85100   0.86013   0.87342   0.88578   0.89496
 Alpha virt. eigenvalues --    0.90628   0.91208   0.92142   0.92799   0.92806
 Alpha virt. eigenvalues --    0.93637   0.94925   0.95600   0.95776   0.98181
 Alpha virt. eigenvalues --    0.99041   1.00552   1.02095   1.03651   1.04350
 Alpha virt. eigenvalues --    1.04563   1.05204   1.05495   1.07073   1.08227
 Alpha virt. eigenvalues --    1.10245   1.10584   1.12140   1.12498   1.12740
 Alpha virt. eigenvalues --    1.14996   1.15627   1.16860   1.17167   1.17312
 Alpha virt. eigenvalues --    1.18685   1.20180   1.21038   1.22196   1.22549
 Alpha virt. eigenvalues --    1.24839   1.26152   1.26637   1.27762   1.28158
 Alpha virt. eigenvalues --    1.29507   1.30715   1.31170   1.32187   1.34105
 Alpha virt. eigenvalues --    1.34698   1.35895   1.38370   1.39019   1.40157
 Alpha virt. eigenvalues --    1.43543   1.44041   1.45266   1.47189   1.48699
 Alpha virt. eigenvalues --    1.49199   1.50342   1.50606   1.51458   1.52933
 Alpha virt. eigenvalues --    1.53628   1.55036   1.56278   1.57309   1.57950
 Alpha virt. eigenvalues --    1.59083   1.59521   1.60538   1.60713   1.61780
 Alpha virt. eigenvalues --    1.62131   1.62882   1.63360   1.64382   1.64611
 Alpha virt. eigenvalues --    1.65373   1.66097   1.66566   1.67471   1.68008
 Alpha virt. eigenvalues --    1.68486   1.69732   1.70218   1.71436   1.71538
 Alpha virt. eigenvalues --    1.72949   1.73615   1.74283   1.74995   1.75950
 Alpha virt. eigenvalues --    1.76366   1.77316   1.78361   1.79005   1.80852
 Alpha virt. eigenvalues --    1.81212   1.82379   1.83017   1.86265   1.87410
 Alpha virt. eigenvalues --    1.89709   1.89845   1.90612   1.92416   1.92612
 Alpha virt. eigenvalues --    1.93952   1.96734   1.98255   1.99237   1.99882
 Alpha virt. eigenvalues --    2.00480   2.01515   2.03205   2.04816   2.05806
 Alpha virt. eigenvalues --    2.06527   2.08703   2.09025   2.11276   2.11550
 Alpha virt. eigenvalues --    2.13607   2.14590   2.15018   2.16448   2.17527
 Alpha virt. eigenvalues --    2.18512   2.19363   2.20410   2.21270   2.21824
 Alpha virt. eigenvalues --    2.22839   2.23256   2.24906   2.25522   2.27106
 Alpha virt. eigenvalues --    2.28617   2.29501   2.31676   2.33465   2.33983
 Alpha virt. eigenvalues --    2.35413   2.36022   2.36693   2.37100   2.38288
 Alpha virt. eigenvalues --    2.39234   2.40313   2.41418   2.42500   2.42676
 Alpha virt. eigenvalues --    2.43355   2.45016   2.46229   2.46968   2.47853
 Alpha virt. eigenvalues --    2.49821   2.51158   2.52005   2.52385   2.53308
 Alpha virt. eigenvalues --    2.53551   2.54899   2.55586   2.57442   2.57948
 Alpha virt. eigenvalues --    2.58557   2.58803   2.59599   2.60369   2.60830
 Alpha virt. eigenvalues --    2.61874   2.62355   2.62534   2.63417   2.64174
 Alpha virt. eigenvalues --    2.65647   2.66007   2.66619   2.67652   2.67971
 Alpha virt. eigenvalues --    2.68646   2.69597   2.70158   2.71218   2.72021
 Alpha virt. eigenvalues --    2.72846   2.73656   2.74237   2.75796   2.76723
 Alpha virt. eigenvalues --    2.77041   2.78069   2.78760   2.79577   2.80430
 Alpha virt. eigenvalues --    2.81489   2.82048   2.83995   2.84822   2.85386
 Alpha virt. eigenvalues --    2.85596   2.86977   2.87648   2.89498   2.90642
 Alpha virt. eigenvalues --    2.90898   2.92403   2.93141   2.94845   2.95474
 Alpha virt. eigenvalues --    2.97517   2.99210   3.01477   3.02703   3.05851
 Alpha virt. eigenvalues --    3.06263   3.06789   3.07890   3.09154   3.10530
[...]
 ,0.00005602,-0.00005977,-0.00002427,0.00000270,0.00008173,-0.00038371,
 0.00004394,0.00012386,0.00008619,0.00003624,0.00004212,0.00002948,-0.0
 0000426,0.00003224,-0.00010532,-0.00024773,0.00008514,-0.00000322,-0.0
 0000709,-0.00000694,0.00003005,0.00000353,0.00002212,-0.00001647,0.000
 00042,-0.00000706,0.00001102,-0.00018772,-0.00014925,0.00004208,0.0001
 5024,-0.00002877,-0.00109535,0.00040926,0.00050053,0.00003682,0.000018
 88,-0.00022247,-0.00015484,0.00020223,0.00017601,0.00007836,-0.0000264
 5,0.00016379,-0.00002962,0.00001251,0.00002109,0.00002791,-0.00000612,
 0.00000118,-0.00005093,0.00001087,0.00000796,0.00936083,-0.00721574,-0
 .01916800,0.07441583,-0.06977090,-0.29159894,-0.00067603,-0.00043764,-
 0.00033305,0.00033994,-0.00098476,0.00219386,-0.00073036,0.00047627,0.
 00036811,-0.00444701,0.00030835,-0.00218587,0.00006958,-0.00010325,0.0
 0009847,-0.08035160,0.07702013,0.30995968,-0.00004214,-0.00007185,-0.0
 0014560,-0.00026357,0.00010939,0.00012905,0.00003781,0.00010930,-0.000
 10447,-0.00006723,-0.00007746,-0.00113205,-0.00002969,-0.00004940,0.00
 000729,0.00000330,-0.00002630,0.00003182,-0.00024010,-0.00004291,0.000
 11402,-0.00002573,-0.00002190,0.00000432,0.00001425,0.00000504,0.00000
 208,-0.00000130,0.00004486,-0.00003304,-0.00001490,-0.00001712,-0.0000
 0055,0.00001082,0.00001347,0.00000237,-0.00000257,0.00000483,-0.000003
 03,0.00000636,0.00001613,-0.00004260,0.00003958,0.00010480,-0.00003073
 ,0.00000075,-0.00002020,0.00002741,-0.00000707,-0.00001451,-0.00000517
 ,-0.00001468,0.00000304,0.00002066,0.00000001,0.00002728,0.00001320,-0
 .00000157,-0.00000214,0.00001054,0.00000857,-0.00001501,-0.00000378,-0
 .00003704,0.00003255,0.00000385,-0.00341704,0.00450760,0.00159309,-0.0
 1246535,0.00233041,-0.02424801,-0.16348255,0.02706941,-0.13730985,0.00
 979090,-0.00109600,0.00876523,0.00148752,0.00268857,0.00205190,-0.0006
 0028,0.00002326,0.00108336,0.00000121,-0.00000169,0.00001221,0.0003675
 6,-0.00161943,0.00058579,0.16869585,-0.00003566,0.00003400,-0.00000056
 ,0.00034390,-0.00007315,-0.00004165,-0.00002567,-0.00004098,0.00000181
 ,0.00010860,0.00005202,0.00040460,0.00001015,-0.00000848,0.00001059,0.
 00000020,0.00000403,0.00000036,0.00003344,0.00013789,-0.00002878,-0.00
 001762,-0.00000486,-0.00000442,0.00000857,-0.00000293,0.00000768,-0.00
 002734,0.00002295,0.00000868,-0.00000100,0.00000098,-0.00000026,-0.000
 00182,-0.00000283,0.00000080,0.00000177,-0.00000099,-0.00000059,0.0000
 5213,-0.00002247,-0.00001163,-0.00001692,-0.00004585,0.00002935,-0.000
 01082,-0.00000470,0.00000941,-0.00001181,0.00002751,0.00002936,0.00001
 616,0.00000252,-0.00000869,-0.00001181,-0.00001128,-0.00000319,-0.0000
 0340,0.00000729,-0.00000159,-0.00001313,0.00000820,-0.00000082,0.00001
 826,-0.00000836,0.00000125,0.00436494,0.00550740,-0.00155732,0.0067659
 6,0.00221819,0.00999866,0.02716501,-0.04465128,0.02248886,-0.00564731,
 0.00450928,-0.00663676,0.00280347,0.00607485,-0.00262575,-0.00000773,-
 0.00096318,-0.00027092,-0.00002004,-0.00000403,0.00002745,-0.00175050,
 -0.00329048,0.00051245,-0.03191960,0.03471405,-0.00003989,0.00000143,0
 .00000395,-0.00000924,-0.00000452,-0.00000750,0.00002250,0.00001474,-0
 .00000953,0.00029124,-0.00004977,0.00019882,0.00000173,-0.00000334,0.0
 0000520,0.00000217,0.00000105,0.00000002,0.00000499,-0.00005508,-0.000
 01812,-0.00000954,-0.00000564,0.00000037,0.00000047,-0.00000074,0.0000
 0211,-0.00000175,0.00001513,-0.00000783,-0.00000197,-0.00000364,0.0000
 0094,0.00000201,0.00000129,-0.00000105,-0.00000212,0.00000108,0.000000
 90,-0.00001708,0.00001737,0.00000819,0.00000861,0.00001450,-0.00000673
 ,-0.00000922,0.00001603,-0.00001042,-0.00001097,-0.00001590,-0.0000141
 1,-0.00000059,-0.00000744,0.00000240,-0.00000368,0.00000799,-0.0000048
 5,0.,-0.00000274,0.00000210,0.00000258,-0.00000271,-0.00000060,-0.0000
 0699,0.00000305,-0.00000076,0.00112342,-0.00139079,0.00172533,0.004305
 45,-0.00110245,0.00710917,-0.13732602,0.02249770,-0.23317550,-0.019744
 56,0.00449226,-0.01690574,0.00259975,-0.00285701,-0.00398683,0.0010610
 3,-0.00027002,-0.00012020,0.00000449,0.00000599,-0.00000655,-0.0001783
 8,0.00079686,0.00055682,0.14838900,-0.02310055,0.24472158,-0.00014472,
 -0.00000566,-0.00002780,0.00001088,0.00004464,-0.00002451,0.00004557,0
 .00003896,-0.00003735,-0.00011161,-0.00040808,0.00009392,0.00000560,-0
 .00001262,-0.00000094,0.00000619,0.00000181,0.00000726,0.00005616,-0.0
 0000739,-0.00001401,-0.00001182,-0.00001145,0.00000529,0.00000275,0.00
 000134,0.00000054,0.00000779,0.00001992,-0.00000983,-0.00000743,-0.000
 00999,0.00000476,0.00000429,0.00000878,-0.00000185,-0.00000367,0.00000
 194,-0.00000068,-0.00000171,0.00001612,0.00000290,0.00000586,-0.000013
 40,0.00002372,-0.00000437,0.00001618,0.00003862,-0.00000589,-0.0000192
 6,0.00000666,0.00000965,-0.00000910,-0.00000231,-0.00000864,0.00001188
 ,-0.00000792,-0.00000520,0.00000212,0.00000342,0.00000238,-0.00000672,
 -0.00000250,0.00000399,0.00000771,-0.00000336,0.00042569,-0.00053766,-
 0.00041086,0.00233703,0.00233685,0.00151139,-0.00454014,0.00280590,-0.
 00099306,-0.29477235,0.10591936,0.03481657,-0.01300917,0.00715770,0.00
 534885,0.00026804,0.00208823,-0.00405857,0.00000724,-0.00003076,0.0000
 1878,-0.00033024,0.00015880,-0.00010906,0.00005323,-0.00152638,0.00053
 758,0.31014268,-0.00005129,0.00002027,-0.00017948,0.00001682,0.0000139
 2,0.00006586,0.00002545,0.00000509,-0.00002209,-0.00029438,-0.00091935
 ,0.00012142,-0.00001188,-0.00000883,-0.00001945,0.00000080,0.00000365,
 0.00000790,0.00010404,0.00003849,0.00005446,0.00000265,0.00000157,0.00
 000734,0.00000871,-0.00000161,0.00000162,0.00000706,0.00000171,0.00000
 798,-0.00000312,-0.00000143,0.00000030,0.00000129,0.00000359,0.0000018
 1,0.00000135,-0.00000044,-0.00000190,0.00001297,-0.00000199,-0.0000191
 5,-0.00000381,-0.00004751,0.00003153,-0.00000126,0.00002727,0.00007854
 ,0.00001077,0.00002398,0.00000468,0.00000118,-0.00000542,0.00000229,0.
 00000352,-0.00001310,-0.00000193,-0.00000401,0.00000646,-0.00000130,-0
 .00000274,0.00000085,-0.00000083,0.00001748,-0.00001274,-0.00000048,-0
 .00064822,-0.00063589,0.00001569,0.00227957,0.00639995,-0.00254767,0.0
 0732897,0.00023332,0.00018390,0.10591857,-0.08192883,-0.01783259,0.002
 45706,0.00192394,-0.00135528,0.00227132,0.00643712,-0.00017899,0.00000
 757,-0.00003053,0.00001038,0.00035241,0.00001006,0.00002323,-0.0016468
 7,-0.00332700,0.00057766,-0.11677519,0.07505378,-0.00006228,0.00001954
 ,0.00012821,-0.00001008,0.00001355,-0.00001718,0.00003724,0.00000611,-
 0.00003460,0.00007771,0.00013481,0.00002662,-0.00002926,0.00000134,-0.
 00001350,-0.00000214,0.00000022,0.00001372,-0.00002552,-0.00000422,-0.
 00000547,0.00001387,0.00000470,0.00000655,0.00000225,0.00000312,0.0000
 0425,-0.00000483,-0.00002606,0.00000943,-0.00000062,-0.00000206,0.0000
 0002,0.00000568,0.00000241,0.00000298,-0.00000289,0.00000043,-0.000001
 24,-0.00000910,-0.00002515,-0.00000267,0.00000380,0.00000744,0.0000050
 5,-0.00009636,0.00003224,0.00004111,0.00000926,0.00000303,-0.00002148,
 -0.00001237,0.00002245,0.00001924,0.00001177,-0.00000273,0.00001494,-0
 .00000735,0.00000323,0.00000381,0.00000587,-0.00000113,0.00000032,-0.0
 0000163,0.00000243,0.00000082,-0.00024548,0.00001555,-0.00155092,0.000
 90202,-0.00235070,-0.00485555,0.02759642,-0.01109928,0.00113477,0.0347
 6637,-0.01778861,-0.06481221,-0.02319405,0.00987808,0.00821441,-0.0035
 3624,-0.00037144,-0.00335775,0.00001275,-0.00003510,0.00001607,0.00137
 113,-0.00054925,-0.00015212,-0.00027485,0.00090200,0.00088883,-0.03710
 584,0.02030333,0.06325475,-0.00001297,-0.00009011,-0.00012413,0.000098
 20,-0.00001599,0.00002897,-0.00003895,0.00012387,-0.00002120,0.0002644
 7,0.00019532,0.00149468,0.00001064,-0.00004183,0.00001275,0.00000646,-
 0.00002708,0.00001074,-0.00000669,-0.00014042,0.00008438,-0.00001562,-
 0.00001651,0.00000035,0.00001790,0.00000136,-0.00001233,-0.00002045,0.
 00001721,-0.00002025,-0.00001197,-0.00000862,0.00000422,-0.00000932,0.
 00001130,-0.00000347,0.00000468,-0.00000152,-0.00000678,-0.00001133,0.
 00000844,-0.00002572,0.00000458,0.00006671,-0.00003077,-0.00041419,0.0
 0015186,0.00008530,-0.00001308,-0.00000959,-0.00000629,-0.00000829,-0.
 00000908,0.00000240,0.00000079,0.00002154,0.00000810,0.00001221,-0.000
 00628,-0.00001231,-0.00000432,-0.00000688,-0.00000019,-0.00002550,0.00
 002113,-0.00000779,-0.00395133,0.00464350,-0.00021276,-0.00129914,0.00
 008836,-0.00068195,-0.00098843,0.00263865,-0.00385002,0.01008490,-0.00
 563397,-0.01873385,-0.08194623,0.02902082,0.07593612,-0.00372696,0.007
 34780,0.02760647,0.00001335,0.00002644,-0.00002020,-0.00006405,-0.0004
 0363,0.00014313,0.00032576,-0.00024493,-0.00098923,0.00019603,-0.00146
 387,0.00085997,0.08109006,-0.00001061,-0.00000207,0.00008427,-0.000193
 55,-0.00003482,-0.00009416,-0.00002980,0.00004454,0.00001240,0.0000429
 2,0.00003810,-0.00049609,0.00002485,-0.00002970,-0.00000426,0.00000433
 ,-0.00000547,-0.00000757,0.00008640,-0.00000857,-0.00001873,-0.0000085
 8,0.00000085,0.00000223,0.00000479,0.00000926,-0.00000252,-0.00001005,
 -0.00000727,0.00000727,-0.00000150,-0.00000051,0.00000324,-0.00000339,
 0.00000491,-0.00000045,0.00000682,-0.00000270,-0.00000284,0.00002459,-
 0.00002467,0.00001905,-0.00003505,-0.00004061,0.00001865,0.00014903,-0
 .00017299,-0.00003426,-0.00000414,0.00001192,-0.00003266,-0.00001584,0
 .00000362,0.00001095,0.00000719,-0.00001941,-0.00000020,-0.00000733,0.
 00000941,-0.00000009,-0.00000453,0.00000786,-0.00000129,0.00001691,-0.
 00001770,-0.00000017,0.00449482,0.00598293,-0.00075245,0.00005043,-0.0
 0068532,0.00043490,0.00256878,0.00637889,-0.00002724,-0.00099335,0.004
 46176,0.00398924,0.02896406,-0.06175988,-0.07176784,0.00292932,0.00074
 378,-0.01148870,0.00001798,-0.00001670,0.00000094,-0.00040375,-0.00098
 532,0.00011939,-0.00000905,0.00012426,0.00021283,-0.00159691,-0.003245
 27,0.00042588,-0.03437891,0.05273215,0.00004325,0.00003713,0.00002471,
 0.00006081,-0.00001679,-0.00001382,0.00000487,-0.00008023,0.00002094,-
 0.00029487,0.00004979,-0.00016435,-0.00001659,0.00002112,0.00000064,-0
 .00000553,0.00001023,-0.00000290,0.00005241,0.00005327,-0.00003890,0.0
 0000904,0.00000883,-0.00000424,-0.00000437,-0.00000305,0.00000649,0.00
 000103,-0.00000983,0.00001125,0.00000812,0.00000841,-0.00000498,0.0000
 0220,-0.00000924,0.00000368,-0.00000092,0.00000048,0.00000265,0.000009
 66,-0.00000342,0.00000463,-0.00001049,-0.00003643,0.00001278,0.0000678
 0,-0.00002034,0.00000213,0.00000550,0.00001969,-0.00000865,-0.00000504
 ,0.00000314,0.00000096,0.00000575,-0.00001620,-0.00000142,-0.00000123,
 0.00000089,-0.00000105,-0.00000046,0.00000562,0.00000180,0.00001473,-0
 .00001285,-0.00000053,0.00012006,-0.00097934,0.00207351,-0.00064539,0.
 00043355,0.00049730,-0.00433058,0.00017429,-0.00203169,0.00977460,-0.0
 0715404,-0.01718391,0.07598451,-0.07176835,-0.29873520,-0.00063740,-0.
 00034549,0.00002406,-0.00000414,0.00001074,0.00000433,0.00013216,0.000
 12737,-0.00007527,0.00051057,-0.00035822,-0.00093957,0.00003764,0.0007
 4988,0.00077115,-0.08140445,0.07852181,0.31521847,-0.00230262,0.000355
 87,-0.00123032,0.00056706,-0.00021522,0.00172326,-0.00016197,-0.000167
 75,0.00008010,-0.00065974,-0.00070355,0.00044638,0.00005363,0.00007502
 ,0.00002078,-0.00005255,0.00002962,-0.00002420,0.00011498,0.00004096,0
 .00001310,-0.00000918,0.00001586,-0.00003977,-0.00000533,-0.00001422,-
 0.00000730,-0.00000603,-0.00000052,-0.00002949,0.00002558,0.00003836,-
 0.00001971,-0.00003893,-0.00004083,-0.00001549,0.00000124,-0.00001769,
 -0.00000142,0.00009348,-0.00003633,-0.00001978,-0.00000270,-0.00005441
 ,0.00008828,0.00000672,-0.00011840,-0.00011752,-0.00006433,-0.00001717
 ,-0.00003740,-0.00002504,-0.00001297,-0.00000399,-0.00002612,-0.000030
 74,-0.00001719,-0.00002576,0.00000665,-0.00001772,-0.00006716,0.000017
 96,-0.00000029,0.00002368,-0.00003823,-0.00000393,0.01050044,-0.001489
 38,0.00704609,0.00080473,0.00258686,0.00246444,-0.00043644,0.00001560,
 0.00089320,-0.00314713,0.00439549,0.00151999,-0.01188430,0.00246102,-0
 .02270516,-0.16430899,0.02577799,-0.13714656,0.00017860,0.00012209,0.0
 0002379,0.00043352,0.00001341,0.00064189,-0.00012858,-0.00039086,-0.00
 001181,-0.00063687,0.00008597,-0.00105352,0.00041166,-0.00170090,0.000
 52715,0.17064508,-0.00010063,-0.00022643,-0.00036943,0.00028566,0.0000
 2177,-0.00003713,-0.00001672,0.00023694,0.00003888,-0.00146178,-0.0025
 0243,0.00077636,0.00004053,-0.00012512,0.00001536,0.00003646,-0.000081
 43,0.00001398,0.00031286,0.00019759,-0.00050955,-0.00000783,-0.0000106
 5,0.00002093,0.00001782,-0.00000487,-0.00005595,-0.00003935,0.00000135
 ,-0.00000499,-0.00001798,-0.00001161,0.00000514,-0.00003902,0.00002267
 ,0.00000307,0.00004163,0.00001315,-0.00001310,-0.00001269,-0.00004253,
 0.00007309,0.00008376,-0.00018179,0.00036890,-0.00018971,0.00001706,0.
 00010497,-0.00002751,0.00003860,-0.00003981,0.00000661,0.00004004,0.00
 006257,0.00000623,-0.00001756,-0.00001076,-0.00010466,0.00005522,0.000
 05437,0.00000175,0.00000339,-0.00002548,0.00005075,-0.00001858,-0.0000
 1573,-0.00577299,0.00541861,-0.00633730,0.00259012,0.00548734,-0.00244
 987,0.00005678,-0.00091280,-0.00031765,0.00451233,0.00576869,-0.001575
 62,0.00705629,0.00270372,0.00978078,0.02552646,-0.04663619,0.02089387,
 0.00030401,-0.00069923,0.00008083,-0.00016109,0.00019743,-0.00046422,-
 0.00041998,-0.00098958,0.00019178,0.00033233,-0.00000502,0.00046820,-0
 .00187248,-0.00348600,0.00057312,-0.03107578,0.03600999,-0.00102266,0.
 00015187,0.00067465,0.00046382,0.00028835,-0.00055583,0.00041824,0.000
 21917,-0.00032255,-0.00118964,0.00076847,-0.00020136,-0.00011176,-0.00
 001261,-0.00003613,0.00001874,-0.00002167,0.00008719,0.00016837,-0.000
 10799,-0.00022918,0.00001033,-0.00001022,0.00003204,0.00000705,0.00001
 644,0.00003011,-0.00000304,-0.00001768,0.00002885,-0.00002168,-0.00003
 557,0.00000505,0.00002997,0.00002244,0.00001401,-0.00001933,0.00001217
 ,-0.00000644,-0.00010171,-0.00002752,0.00002280,0.00002371,-0.00005735
 ,0.00011843,-0.00000765,0.00005263,0.00010447,0.00002537,0.00001839,-0
 .00006011,0.00000614,0.00005040,0.00006620,0.00003741,0.00001653,0.000
 02279,-0.00006740,0.00002127,0.00002092,0.00003123,-0.00003165,0.00000
 503,0.00002462,0.00002828,0.00000018,-0.01894862,0.00364081,-0.0179393
 5,0.00246630,-0.00280845,-0.00381195,0.00099299,-0.00025197,-0.0000887
 1,0.00122127,-0.00158605,0.00145065,0.00480710,-0.00119777,0.00821460,
 -0.13580428,0.02134781,-0.22975803,0.00010112,-0.00033615,0.00016804,-
 0.00093175,0.00019290,-0.00097963,-0.00003367,0.00021787,-0.00000831,0
 .00035233,-0.00009707,0.00026909,-0.00011823,0.00088071,0.00053093,0.1
 4713604,-0.02139985,0.24223451,-0.00012460,0.00008190,-0.00125179,0.00
 700696,-0.00220404,-0.00238105,-0.18079656,0.10127497,0.07260773,0.000
 30631,0.00054701,-0.00008396,0.00204850,-0.00182855,-0.00150676,-0.024
 03084,0.01554553,0.01094947,-0.00003895,-0.00010977,0.00016581,-0.0001
 2699,0.00002746,0.00053797,0.00096469,-0.00045562,-0.00111784,0.000574
 25,-0.00032709,0.00033987,0.00084758,-0.00032460,0.00044219,0.00122890
 ,0.00028882,-0.00019904,-0.00439230,-0.00232398,-0.00225006,-0.0000187
 6,0.00002938,-0.00002188,-0.00001819,-0.00002052,-0.00002197,0.0000497
 6,-0.00000542,0.00001626,0.00001135,-0.00000752,-0.00000209,0.00000176
 ,-0.00000447,-0.00000798,0.00000518,0.00001420,0.00000477,-0.00000370,
 -0.00000575,-0.00001690,-0.00001777,-0.00000211,0.00002461,-0.00000463
 ,0.00000562,-0.00000206,-0.00058471,-0.00033611,-0.00014876,0.00032686
 ,0.00001430,0.00012392,-0.00019228,0.00009253,0.00011604,-0.00003259,0
 .00000928,-0.00017104,0.00012888,0.00004442,0.00003509,-0.00028742,-0.
 00028692,0.00012366,0.00000850,0.00001952,-0.00000876,0.00001082,0.000
 00599,-0.00000575,-0.00000209,-0.00000821,0.00000602,0.00000277,-0.000
 00889,-0.00000171,0.00002715,0.00001402,-0.00001039,0.00012938,0.00005
 784,0.00003929,0.19699281,-0.00156454,0.00225886,0.00034790,0.01909895
 ,-0.03748333,-0.00716252,0.10287553,-0.12291521,-0.05563615,0.00225961
 ,0.00107738,0.00128923,-0.00117191,0.00245124,-0.00036121,-0.00822276,
 0.00734439,0.00423636,-0.00038637,-0.00031463,-0.00003578,-0.00010883,
 0.00020101,-0.00058701,-0.00027147,0.00089979,0.00090174,0.00009926,-0
 .00002073,-0.00024253,0.00061240,0.00048862,0.00031170,0.00067083,0.00
 013332,-0.00015705,-0.00273098,0.00017824,-0.00088235,0.00007250,-0.00
 007982,0.00006837,-0.00002289,0.00006970,0.00005933,-0.00011736,-0.000
 07075,-0.00013935,-0.00007248,-0.00002091,0.00000374,-0.00000241,-0.00
 001606,-0.00003136,-0.00007676,-0.00003431,-0.00002274,-0.00001201,-0.
 00001107,-0.00005732,-0.00015527,0.00009563,0.00003058,-0.00004890,-0.
 00005952,-0.00003154,-0.00029084,-0.00042887,-0.00045037,-0.00047420,0
 .00018943,-0.00010934,0.00010467,-0.00003635,-0.00012075,-0.00005183,0
 .00000433,0.00018242,-0.00027297,0.00026237,-0.00009831,-0.00007880,0.
 00015397,0.00034659,0.00008536,0.00009112,-0.00000691,0.00001259,-0.00
 003756,0.00003232,-0.00001851,0.00000699,0.00000361,0.00000004,-0.0000
 2007,0.00000561,-0.00001261,-0.00000930,0.00000444,0.00008620,-0.00028
 176,0.00005303,-0.10981323,0.14593388,0.00110018,-0.00101808,0.0022606
 2,-0.00857504,0.01051518,0.00287935,0.07198779,-0.05512753,-0.08750741
 ,-0.00017470,-0.00032904,-0.00028268,0.02360361,-0.01964310,-0.0158979
 9,-0.00990058,0.00612459,0.00447349,-0.00002165,0.00005159,0.00005398,
 0.00010495,0.00051889,0.00095430,-0.00027562,0.00064487,-0.00632886,-0
 .00042038,-0.00024079,0.00148360,0.00079525,-0.00001113,0.00025536,0.0
 0040077,0.00053264,0.00062855,-0.00252494,-0.00060899,-0.00003848,0.00
 002248,0.00000510,-0.00001835,-0.00000626,0.00000263,-0.00006450,0.000
 13820,0.00013976,0.00008867,-0.00001659,-0.00000272,0.00001033,0.00000
 582,0.00000763,0.00001699,-0.00000359,0.00000478,0.00000205,0.00000719
 ,0.00004034,0.00005241,0.00003672,-0.00000707,-0.00001576,-0.00000476,
 0.00001218,0.00003228,0.00026069,0.00001846,0.00008828,-0.00013338,0.0
 0002814,-0.00023195,-0.00002679,0.00000854,-0.00006780,0.00001984,-0.0
 0000385,0.00004498,-0.00005108,-0.00004649,0.00003858,0.00008935,0.000
 07554,0.00012593,-0.00002262,-0.00005721,0.00002336,0.00001578,0.00001
 255,0.00002315,0.00000965,0.00000052,-0.00000251,0.00000023,0.00000839
 ,-0.00000144,0.00000434,-0.00001223,-0.00000594,-0.00012193,0.00010026
 ,-0.00010296,-0.07632291,0.05825564,0.09703039\\0.00001070,0.00001937,
 -0.00001527,0.00000807,-0.00000643,0.00003664,0.00000016,0.00002458,-0
 .00000988,-0.00001546,-0.00000328,-0.00002260,-0.00000050,-0.00000259,
 -0.00000238,-0.00000479,-0.00001896,0.00000120,0.00000178,0.00000221,0
 .00000203,-0.00000072,-0.00000142,-0.00000464,0.00000160,0.00000352,-0
 .00000331,0.00000384,0.00000069,-0.00000064,-0.00000567,-0.00000429,0.
 00000170,-0.00000207,-0.00000109,0.00000609,0.00000011,0.00000282,-0.0
 0000058,-0.00000046,0.00000041,-0.00000026,0.00000250,0.00000261,-0.00
 000103,0.00000115,-0.00000192,-0.00000782,0.00000266,-0.00000249,-0.00
 000076,0.00000013,-0.00000062,0.00000141,0.00000208,0.00000241,0.00000
 043,0.00000033,0.00000039,0.00000222,-0.00000075,0.00000032,0.00000055
 ,0.00000036,0.00000248,0.00000134,0.00001357,-0.00000839,0.00001666,-0
 .00001608,-0.00000055,-0.00000941,0.00000727,-0.00000646,-0.00001132,-
 0.00000150,0.00000182,0.00001336,-0.00001449,0.00000456,-0.00000088,0.
 00000844,-0.00000145,-0.00000421,0.00000048,0.00000140,0.00000466,0.00
 000231,-0.00000008,-0.00000008,-0.00000154,-0.00000110,-0.00000081,-0.
 00000151,-0.00000126,-0.00000131,-0.00000031,-0.00000051,0.00000117,-0
 .00000091,0.00000011,0.00000119,-0.00000080,-0.00000681,0.00000658\\\@
 The archive entry for this job was punched.


 SEE YOU NOW,
 YOUR BAIT OF FALSEHOOD TAKES THIS CARP OF TRUTH.
 AND THUS DO WE OF WISDOM AND OF REACH...
 BY INDIRECTIONS FIND DIRECTIONS OUT.    -- HAMLET, II, 1
 Job cpu time:       1 days 16 hours 57 minutes 54.4 seconds.
 Elapsed time:       0 days  2 hours  2 minutes 54.3 seconds.
 File lengths (MBytes):  RWF=   1856 Int=      0 D2E=      0 Chk=     40 Scr=      1
 Normal termination of Gaussian 16 at Tue Jan  7 20:07:50 2025.
