 Entering Gaussian System, Link 0=g16
 Input=gjfs/data_set_12-catalyst-42.gjf
 Output=gjfs/data_set_12-catalyst-42.log
 Initial command:
 /usr/local/intel/g16/l1.exe "/scr/Gau-256313.inp" -scrdir="/scr/"
 Entering Link 1 = /usr/local/intel/g16/l1.exe PID=    256322.
  
 Copyright (c) 1988-2019, Gaussian, Inc.  All Rights Reserved.
  
 This is part of the Gaussian(R) 16 program.  It is based on
 the Gaussian(R) 09 system (copyright 2009, Gaussian, Inc.),
 the Gaussian(R) 03 system (copyright 2003, Gaussian, Inc.),
 the Gaussian(R) 98 system (copyright 1998, Gaussian, Inc.),
 the Gaussian(R) 94 system (copyright 1995, Gaussian, Inc.),
 the Gaussian 92(TM) system (copyright 1992, Gaussian, Inc.),
 the Gaussian 90(TM) system (copyright 1990, Gaussian, Inc.),
 the Gaussian 88(TM) system (copyright 1988, Gaussian, Inc.),
 the Gaussian 86(TM) system (copyright 1986, Carnegie Mellon
 University), and the Gaussian 82(TM) system (copyright 1983,
 Carnegie Mellon University). Gaussian is a federally registered
 trademark of Gaussian, Inc.
  
 This software contains proprietary and confidential information,
 including trade secrets, belonging to Gaussian, Inc.
  
 This software is provided under written license and may be
 used, copied, transmitted, or stored only in accord with that
 written license.
  
 The following legend is applicable only to US Government
 contracts under FAR:
  
                    RESTRICTED RIGHTS LEGEND
  
 Use, reproduction and disclosure by the US Government is
 subject to restrictions as set forth in subparagraphs (a)
 and (c) of the Commercial Computer Software - Restricted
 Rights clause in FAR 52.227-19.
  
 Gaussian, Inc.
 340 Quinnipiac St., Bldg. 40, Wallingford CT 06492
  
  
 ---------------------------------------------------------------
 Warning -- This program may not be used in any manner that
 competes with the business of Gaussian, Inc. or will provide
 assistance to any competitor of Gaussian, Inc.  The licensee
 of this program is prohibited from giving any competitor of
 Gaussian, Inc. access to this program.  By using this program,
 the user acknowledges that Gaussian, Inc. is engaged in the
 business of creating and licensing software in the field of
 computational chemistry and represents and warrants to the
 licensee that it is not a competitor of Gaussian, Inc. and that
 it will not use this program in any manner prohibited above.
 ---------------------------------------------------------------
  

 Cite this work as:
 Gaussian 16, Revision C.01,
 M. J. Frisch, G. W. Trucks, H. B. Schlegel, G. E. Scuseria, 
 M. A. Robb, J. R. Cheeseman, G. Scalmani, V. Barone, 
 G. A. Petersson, H. Nakatsuji, X. Li, M. Caricato, A. V. Marenich, 
 J. Bloino, B. G. Janesko, R. Gomperts, B. Mennucci, H. P. Hratchian, 
 J. V. Ortiz, A. F. Izmaylov, J. L. Sonnenberg, D. Williams-Young, 
 F. Ding, F. Lipparini, F. Egidi, J. Goings, B. Peng, A. Petrone, 
 T. Henderson, D. Ranasinghe, V. G. Zakrzewski, J. Gao, N. Rega, 
 G. Zheng, W. Liang, M. Hada, M. Ehara, K. Toyota, R. Fukuda, 
 J. Hasegawa, M. Ishida, T. Nakajima, Y. Honda, O. Kitao, H. Nakai, 
 T. Vreven, K. Throssell, J. A. Montgomery, Jr., J. E. Peralta, 
 F. Ogliaro, M. J. Bearpark, J. J. Heyd, E. N. Brothers, K. N. Kudin, 
 V. N. Staroverov, T. A. Keith, R. Kobayashi, J. Normand, 
 K. Raghavachari, A. P. Rendell, J. C. Burant, S. S. Iyengar, 
 J. Tomasi, M. Cossi, J. M. Millam, M. Klene, C. Adamo, R. Cammi, 
 J. W. Ochterski, R. L. Martin, K. Morokuma, O. Farkas, 
 J. B. Foresman, and D. J. Fox, Gaussian, Inc., Wallingford CT, 2019.
 
 ******************************************
 Gaussian 16:  ES64L-G16RevC.01  3-Jul-2019
                 7-Jan-2025 
 ******************************************
 %nprocshared=20
 Will use up to   20 processors via shared memory.
 %mem=30GB
 %chk=outputs/data_set_12-catalyst-42.chk
 ----------------------------------
 #p M062X/DEF2TZVP opt freq pop=NBO
 ----------------------------------
 1/18=20,19=15,26=3,38=1/1,3;
 2/9=110,12=2,17=6,18=5,40=1/2;
 3/5=44,7=101,11=2,25=1,30=1,71=1,74=-55/1,2,3;
 4//1;
 5/5=2,38=5/2;
 6/7=2,8=2,9=2,10=2,28=1,40=1/1,7;
 7//1,2,3,16;
 1/18=20,19=15,26=3/3(2);
 2/9=110/2;
 99//99;
 2/9=110/2;
 3/5=44,7=101,11=2,25=1,30=1,71=1,74=-55/1,2,3;
 4/5=5,16=3,69=1/1;
 5/5=2,38=5/2;
 7//1,2,3,16;
 1/18=20,19=15,26=3/3(-5);
 2/9=110/2;
 6/7=2,8=2,9=2,10=2,19=2,28=1,40=1/1,7;
 99/9=1/99;
 Leave Link    1 at Tue Jan  7 16:43:06 2025, MaxMem=  4026531840 cpu:               0.7 elap:               0.1
 (Enter /usr/local/intel/g16/l101.exe)
 -----------------------
 data_set_12-catalyst-42
 -----------------------
 Symbolic Z-matrix:
 Charge =  0 Multiplicity = 2
 O                     1.60786  -0.45224   1.43829 
 N                     1.34438  -0.47504   0.14584 
 C                     1.80043  -1.66249  -0.62083 
 C                     0.36218   0.46868  -0.43565 
 C                     3.32246  -1.80772  -0.47597 
 C                     1.05163  -2.92372  -0.1506 
 C                     0.61822   1.9591   -0.01172 
 H                     3.67393  -2.66777  -1.05525 
 H                     3.58138  -1.95894   0.57562 
 H                     3.8355   -0.90864  -0.83246 
 H                     1.3953   -3.79648  -0.71575 
 H                    -0.02819  -2.81623  -0.29127 
 H                     1.24977  -3.09159   0.91249 
 C                    -0.19862   2.85818  -0.97004 
 C                     2.12178   2.26806  -0.19077 
 H                     0.55458   0.44109  -1.5163 
 H                    -1.27293   2.66442  -0.88202 
 H                     0.09732   2.70457  -2.0163 
 H                    -0.02525   3.91171  -0.72339 
 H                     2.462     2.00977  -1.20263 
 H                     2.72577   1.71047   0.53042 
 H                     2.30224   3.33843  -0.03777 
 C                    -1.06506  -0.02712  -0.20833 
 C                    -1.98437  -0.01614  -1.2707 
 C                    -3.30094  -0.4645   -1.08627 
 C                    -3.7094   -0.93895   0.16833 
 C                    -2.79269  -0.96258   1.23209 
 C                    -1.48007  -0.51101   1.04639 
 C                     0.19221   2.2703    1.43889 
 H                    -1.67127   0.34456  -2.24727 
 H                    -3.99929  -0.44864  -1.91671 
 H                    -4.72558  -1.29012   0.3149 
 H                    -3.1      -1.33461   2.20406 
 H                    -0.76877  -0.54163   1.86538 
 H                     1.55138  -1.46424  -1.66935 
 H                     0.42302   3.31853   1.66538 
 H                     0.72416   1.63101   2.14651 
 H                    -0.88503   2.12708   1.5757 
 
 ITRead=  0  0  0  0  0  0  0  0  0  0  0  0  0  0  0  0  0  0  0  0
 ITRead=  0  0  0  0  0  0  0  0  0  0  0  0  0  0  0  0  0  0
 MicOpt= -1 -1 -1 -1 -1 -1 -1 -1 -1 -1 -1 -1 -1 -1 -1 -1 -1 -1 -1 -1
 MicOpt= -1 -1 -1 -1 -1 -1 -1 -1 -1 -1 -1 -1 -1 -1 -1 -1 -1 -1
 NAtoms=     38 NQM=       38 NQMF=       0 NMMI=      0 NMMIF=      0
                NMic=       0 NMicF=      0.
                    Isotopes and Nuclear Properties:
 (Nuclear quadrupole moments (NQMom) in fm**2, nuclear magnetic moments (NMagM)
  in nuclear magnetons)

  Atom         1           2           3           4           5           6           7           8           9          10
 IAtWgt=          16          14          12          12          12          12          12           1           1           1
 AtmWgt=  15.9949146  14.0030740  12.0000000  12.0000000  12.0000000  12.0000000  12.0000000   1.0078250   1.0078250   1.0078250
 NucSpn=           0           2           0           0           0           0           0           1           1           1
 AtZEff=  -0.0000000  -0.0000000  -0.0000000  -0.0000000  -0.0000000  -0.0000000  -0.0000000  -0.0000000  -0.0000000  -0.0000000
 NQMom=    0.0000000   2.0440000   0.0000000   0.0000000   0.0000000   0.0000000   0.0000000   0.0000000   0.0000000   0.0000000
 NMagM=    0.0000000   0.4037610   0.0000000   0.0000000   0.0000000   0.0000000   0.0000000   2.7928460   2.7928460   2.7928460
 AtZNuc=   8.0000000   7.0000000   6.0000000   6.0000000   6.0000000   6.0000000   6.0000000   1.0000000   1.0000000   1.0000000

  Atom        11          12          13          14          15          16          17          18          19          20
 IAtWgt=           1           1           1          12          12           1           1           1           1           1
 AtmWgt=   1.0078250   1.0078250   1.0078250  12.0000000  12.0000000   1.0078250   1.0078250   1.0078250   1.0078250   1.0078250
 NucSpn=           1           1           1           0           0           1           1           1           1           1
 AtZEff=  -0.0000000  -0.0000000  -0.0000000  -0.0000000  -0.0000000  -0.0000000  -0.0000000  -0.0000000  -0.0000000  -0.0000000
 NQMom=    0.0000000   0.0000000   0.0000000   0.0000000   0.0000000   0.0000000   0.0000000   0.0000000   0.0000000   0.0000000
 NMagM=    2.7928460   2.7928460   2.7928460   0.0000000   0.0000000   2.7928460   2.7928460   2.7928460   2.7928460   2.7928460
 AtZNuc=   1.0000000   1.0000000   1.0000000   6.0000000   6.0000000   1.0000000   1.0000000   1.0000000   1.0000000   1.0000000

  Atom        21          22          23          24          25          26          27          28          29          30
 IAtWgt=           1           1          12          12          12          12          12          12          12           1
 AtmWgt=   1.0078250   1.0078250  12.0000000  12.0000000  12.0000000  12.0000000  12.0000000  12.0000000  12.0000000   1.0078250
 NucSpn=           1           1           0           0           0           0           0           0           0           1
 AtZEff=  -0.0000000  -0.0000000  -0.0000000  -0.0000000  -0.0000000  -0.0000000  -0.0000000  -0.0000000  -0.0000000  -0.0000000
 NQMom=    0.0000000   0.0000000   0.0000000   0.0000000   0.0000000   0.0000000   0.0000000   0.0000000   0.0000000   0.0000000
 NMagM=    2.7928460   2.7928460   0.0000000   0.0000000   0.0000000   0.0000000   0.0000000   0.0000000   0.0000000   2.7928460
 AtZNuc=   1.0000000   1.0000000   6.0000000   6.0000000   6.0000000   6.0000000   6.0000000   6.0000000   6.0000000   1.0000000

  Atom        31          32          33          34          35          36          37          38
 IAtWgt=           1           1           1           1           1           1           1           1
 AtmWgt=   1.0078250   1.0078250   1.0078250   1.0078250   1.0078250   1.0078250   1.0078250   1.0078250
 NucSpn=           1           1           1           1           1           1           1           1
 AtZEff=  -0.0000000  -0.0000000  -0.0000000  -0.0000000  -0.0000000  -0.0000000  -0.0000000  -0.0000000
 NQMom=    0.0000000   0.0000000   0.0000000   0.0000000   0.0000000   0.0000000   0.0000000   0.0000000
 NMagM=    2.7928460   2.7928460   2.7928460   2.7928460   2.7928460   2.7928460   2.7928460   2.7928460
 AtZNuc=   1.0000000   1.0000000   1.0000000   1.0000000   1.0000000   1.0000000   1.0000000   1.0000000
 Leave Link  101 at Tue Jan  7 16:43:08 2025, MaxMem=  4026531840 cpu:              16.4 elap:               1.0
 (Enter /usr/local/intel/g16/l103.exe)

 GradGradGradGradGradGradGradGradGradGradGradGradGradGradGradGradGradGrad
 Berny optimization.
 Initialization pass.
                           ----------------------------
                           !    Initial Parameters    !
                           ! (Angstroms and Degrees)  !
 --------------------------                            --------------------------
 ! Name  Definition              Value          Derivative Info.                !
 --------------------------------------------------------------------------------
 ! R1    R(1,2)                  1.3192         estimate D2E/DX2                !
 ! R2    R(2,3)                  1.4852         estimate D2E/DX2                !
 ! R3    R(2,4)                  1.481          estimate D2E/DX2                !
 ! R4    R(3,5)                  1.5358         estimate D2E/DX2                !
 ! R5    R(3,6)                  1.5403         estimate D2E/DX2                !
 ! R6    R(3,35)                 1.0958         estimate D2E/DX2                !
 ! R7    R(4,7)                  1.5705         estimate D2E/DX2                !
 ! R8    R(4,16)                 1.098          estimate D2E/DX2                !
 ! R9    R(4,23)                 1.5279         estimate D2E/DX2                !
 ! R10   R(5,8)                  1.0949         estimate D2E/DX2                !
 ! R11   R(5,9)                  1.0935         estimate D2E/DX2                !
 ! R12   R(5,10)                 1.0948         estimate D2E/DX2                !
 ! R13   R(6,11)                 1.0951         estimate D2E/DX2                !
 ! R14   R(6,12)                 1.0942         estimate D2E/DX2                !
 ! R15   R(6,13)                 1.0943         estimate D2E/DX2                !
 ! R16   R(7,14)                 1.5472         estimate D2E/DX2                !
 ! R17   R(7,15)                 1.5454         estimate D2E/DX2                !
 ! R18   R(7,29)                 1.5436         estimate D2E/DX2                !
 ! R19   R(14,17)                1.0952         estimate D2E/DX2                !
 ! R20   R(14,18)                1.0981         estimate D2E/DX2                !
 ! R21   R(14,19)                1.0958         estimate D2E/DX2                !
 ! R22   R(15,20)                1.0983         estimate D2E/DX2                !
 ! R23   R(15,21)                1.0935         estimate D2E/DX2                !
 ! R24   R(15,22)                1.0962         estimate D2E/DX2                !
 ! R25   R(23,24)                1.405          estimate D2E/DX2                !
 ! R26   R(23,28)                1.4074         estimate D2E/DX2                !
 ! R27   R(24,25)                1.403          estimate D2E/DX2                !
 ! R28   R(24,30)                1.0871         estimate D2E/DX2                !
 ! R29   R(25,26)                1.4021         estimate D2E/DX2                !
 ! R30   R(25,31)                1.0852         estimate D2E/DX2                !
 ! R31   R(26,27)                1.4045         estimate D2E/DX2                !
 ! R32   R(26,32)                1.0851         estimate D2E/DX2                !
 ! R33   R(27,28)                1.4005         estimate D2E/DX2                !
 ! R34   R(27,33)                1.0852         estimate D2E/DX2                !
 ! R35   R(28,34)                1.0852         estimate D2E/DX2                !
 ! R36   R(29,36)                1.097          estimate D2E/DX2                !
 ! R37   R(29,37)                1.092          estimate D2E/DX2                !
 ! R38   R(29,38)                1.0953         estimate D2E/DX2                !
 ! A1    A(1,2,3)              117.2726         estimate D2E/DX2                !
 ! A2    A(1,2,4)              120.4041         estimate D2E/DX2                !
 ! A3    A(3,2,4)              120.6919         estimate D2E/DX2                !
 ! A4    A(2,3,5)              109.3435         estimate D2E/DX2                !
 ! A5    A(2,3,6)              110.3524         estimate D2E/DX2                !
 ! A6    A(2,3,35)             106.2311         estimate D2E/DX2                !
 ! A7    A(5,3,6)              112.0587         estimate D2E/DX2                !
 ! A8    A(5,3,35)             109.4276         estimate D2E/DX2                !
 ! A9    A(6,3,35)             109.2546         estimate D2E/DX2                !
 ! A10   A(2,4,7)              112.9917         estimate D2E/DX2                !
 ! A11   A(2,4,16)             104.7265         estimate D2E/DX2                !
 ! A12   A(2,4,23)             110.7506         estimate D2E/DX2                !
 ! A13   A(7,4,16)             105.1256         estimate D2E/DX2                !
 ! A14   A(7,4,23)             114.8388         estimate D2E/DX2                !
 ! A15   A(16,4,23)            107.576          estimate D2E/DX2                !
 ! A16   A(3,5,8)              110.0297         estimate D2E/DX2                !
 ! A17   A(3,5,9)              109.7823         estimate D2E/DX2                !
 ! A18   A(3,5,10)             110.8572         estimate D2E/DX2                !
 ! A19   A(8,5,9)              108.915          estimate D2E/DX2                !
 ! A20   A(8,5,10)             108.8058         estimate D2E/DX2                !
 ! A21   A(9,5,10)             108.4055         estimate D2E/DX2                !
 ! A22   A(3,6,11)             110.0271         estimate D2E/DX2                !
 ! A23   A(3,6,12)             111.1033         estimate D2E/DX2                !
 ! A24   A(3,6,13)             109.5209         estimate D2E/DX2                !
 ! A25   A(11,6,12)            108.762          estimate D2E/DX2                !
 ! A26   A(11,6,13)            108.7996         estimate D2E/DX2                !
 ! A27   A(12,6,13)            108.5802         estimate D2E/DX2                !
 ! A28   A(4,7,14)             107.3491         estimate D2E/DX2                !
 ! A29   A(4,7,15)             108.4854         estimate D2E/DX2                !
 ! A30   A(4,7,29)             113.5782         estimate D2E/DX2                !
 ! A31   A(14,7,15)            109.0084         estimate D2E/DX2                !
 ! A32   A(14,7,29)            108.6157         estimate D2E/DX2                !
 ! A33   A(15,7,29)            109.7            estimate D2E/DX2                !
 ! A34   A(7,14,17)            111.4247         estimate D2E/DX2                !
 ! A35   A(7,14,18)            111.5044         estimate D2E/DX2                !
 ! A36   A(7,14,19)            109.6168         estimate D2E/DX2                !
 ! A37   A(17,14,18)           108.4325         estimate D2E/DX2                !
 ! A38   A(17,14,19)           107.8899         estimate D2E/DX2                !
 ! A39   A(18,14,19)           107.8373         estimate D2E/DX2                !
 ! A40   A(7,15,20)            111.168          estimate D2E/DX2                !
 ! A41   A(7,15,21)            111.0404         estimate D2E/DX2                !
 ! A42   A(7,15,22)            109.8283         estimate D2E/DX2                !
 ! A43   A(20,15,21)           108.4567         estimate D2E/DX2                !
 ! A44   A(20,15,22)           107.8917         estimate D2E/DX2                !
 ! A45   A(21,15,22)           108.3549         estimate D2E/DX2                !
 ! A46   A(4,23,24)            119.7479         estimate D2E/DX2                !
 ! A47   A(4,23,28)            121.31           estimate D2E/DX2                !
 ! A48   A(24,23,28)           118.9389         estimate D2E/DX2                !
 ! A49   A(23,24,25)           120.806          estimate D2E/DX2                !
 ! A50   A(23,24,30)           119.5645         estimate D2E/DX2                !
 ! A51   A(25,24,30)           119.6294         estimate D2E/DX2                !
 ! A52   A(24,25,26)           119.9425         estimate D2E/DX2                !
 ! A53   A(24,25,31)           119.9098         estimate D2E/DX2                !
 ! A54   A(26,25,31)           120.1468         estimate D2E/DX2                !
 ! A55   A(25,26,27)           119.5557         estimate D2E/DX2                !
 ! A56   A(25,26,32)           120.2117         estimate D2E/DX2                !
 ! A57   A(27,26,32)           120.2319         estimate D2E/DX2                !
 ! A58   A(26,27,28)           120.3915         estimate D2E/DX2                !
 ! A59   A(26,27,33)           119.9563         estimate D2E/DX2                !
 ! A60   A(28,27,33)           119.652          estimate D2E/DX2                !
 ! A61   A(23,28,27)           120.3616         estimate D2E/DX2                !
 ! A62   A(23,28,34)           119.2917         estimate D2E/DX2                !
 ! A63   A(27,28,34)           120.3426         estimate D2E/DX2                !
 ! A64   A(7,29,36)            109.1849         estimate D2E/DX2                !
 ! A65   A(7,29,37)            110.887          estimate D2E/DX2                !
 ! A66   A(7,29,38)            111.2514         estimate D2E/DX2                !
 ! A67   A(36,29,37)           108.8526         estimate D2E/DX2                !
 ! A68   A(36,29,38)           107.8239         estimate D2E/DX2                !
 ! A69   A(37,29,38)           108.761          estimate D2E/DX2                !
 ! D1    D(1,2,3,5)            -58.3164         estimate D2E/DX2                !
 ! D2    D(1,2,3,6)             65.377          estimate D2E/DX2                !
 ! D3    D(1,2,3,35)          -176.3082         estimate D2E/DX2                !
 ! D4    D(4,2,3,5)            136.1842         estimate D2E/DX2                !
 ! D5    D(4,2,3,6)           -100.1223         estimate D2E/DX2                !
 ! D6    D(4,2,3,35)            18.1924         estimate D2E/DX2                !
 ! D7    D(1,2,4,7)             49.9304         estimate D2E/DX2                !
 ! D8    D(1,2,4,16)           163.7966         estimate D2E/DX2                !
 ! D9    D(1,2,4,23)           -80.5154         estimate D2E/DX2                !
 ! D10   D(3,2,4,7)           -145.0236         estimate D2E/DX2                !
 ! D11   D(3,2,4,16)           -31.1573         estimate D2E/DX2                !
 ! D12   D(3,2,4,23)            84.5306         estimate D2E/DX2                !
 ! D13   D(2,3,5,8)           -178.7636         estimate D2E/DX2                !
 ! D14   D(2,3,5,9)             61.3821         estimate D2E/DX2                !
 ! D15   D(2,3,5,10)           -58.3609         estimate D2E/DX2                !
 ! D16   D(6,3,5,8)             58.5551         estimate D2E/DX2                !
 ! D17   D(6,3,5,9)            -61.2993         estimate D2E/DX2                !
 ! D18   D(6,3,5,10)           178.9578         estimate D2E/DX2                !
 ! D19   D(35,3,5,8)           -62.7915         estimate D2E/DX2                !
 ! D20   D(35,3,5,9)           177.3542         estimate D2E/DX2                !
 ! D21   D(35,3,5,10)           57.6112         estimate D2E/DX2                !
 ! D22   D(2,3,6,11)          -179.7271         estimate D2E/DX2                !
 ! D23   D(2,3,6,12)            59.7671         estimate D2E/DX2                !
 ! D24   D(2,3,6,13)           -60.1794         estimate D2E/DX2                !
 ! D25   D(5,3,6,11)           -57.6198         estimate D2E/DX2                !
 ! D26   D(5,3,6,12)          -178.1255         estimate D2E/DX2                !
 ! D27   D(5,3,6,13)            61.9279         estimate D2E/DX2                !
 ! D28   D(35,3,6,11)           63.8263         estimate D2E/DX2                !
 ! D29   D(35,3,6,12)          -56.6795         estimate D2E/DX2                !
 ! D30   D(35,3,6,13)         -176.626          estimate D2E/DX2                !
 ! D31   D(2,4,7,14)           164.5916         estimate D2E/DX2                !
 ! D32   D(2,4,7,15)            46.9307         estimate D2E/DX2                !
 ! D33   D(2,4,7,29)           -75.3262         estimate D2E/DX2                !
 ! D34   D(16,4,7,14)           50.9671         estimate D2E/DX2                !
 ! D35   D(16,4,7,15)          -66.6937         estimate D2E/DX2                !
 ! D36   D(16,4,7,29)          171.0494         estimate D2E/DX2                !
 ! D37   D(23,4,7,14)          -67.0549         estimate D2E/DX2                !
 ! D38   D(23,4,7,15)          175.2842         estimate D2E/DX2                !
 ! D39   D(23,4,7,29)           53.0273         estimate D2E/DX2                !
 ! D40   D(2,4,23,24)         -133.6119         estimate D2E/DX2                !
 ! D41   D(2,4,23,28)           45.7316         estimate D2E/DX2                !
 ! D42   D(7,4,23,24)           96.92           estimate D2E/DX2                !
 ! D43   D(7,4,23,28)          -83.7365         estimate D2E/DX2                !
 ! D44   D(16,4,23,24)         -19.7106         estimate D2E/DX2                !
 ! D45   D(16,4,23,28)         159.6329         estimate D2E/DX2                !
 ! D46   D(4,7,14,17)           62.1541         estimate D2E/DX2                !
 ! D47   D(4,7,14,18)          -59.1563         estimate D2E/DX2                !
 ! D48   D(4,7,14,19)         -178.4934         estimate D2E/DX2                !
 ! D49   D(15,7,14,17)         179.4738         estimate D2E/DX2                !
 ! D50   D(15,7,14,18)          58.1633         estimate D2E/DX2                !
 ! D51   D(15,7,14,19)         -61.1737         estimate D2E/DX2                !
 ! D52   D(29,7,14,17)         -61.037          estimate D2E/DX2                !
 ! D53   D(29,7,14,18)         177.6526         estimate D2E/DX2                !
 ! D54   D(29,7,14,19)          58.3155         estimate D2E/DX2                !
 ! D55   D(4,7,15,20)           52.7087         estimate D2E/DX2                !
 ! D56   D(4,7,15,21)          -68.1354         estimate D2E/DX2                !
 ! D57   D(4,7,15,22)          172.0386         estimate D2E/DX2                !
 ! D58   D(14,7,15,20)         -63.8886         estimate D2E/DX2                !
 ! D59   D(14,7,15,21)         175.2673         estimate D2E/DX2                !
 ! D60   D(14,7,15,22)          55.4413         estimate D2E/DX2                !
 ! D61   D(29,7,15,20)         177.2975         estimate D2E/DX2                !
 ! D62   D(29,7,15,21)          56.4534         estimate D2E/DX2                !
 ! D63   D(29,7,15,22)         -63.3725         estimate D2E/DX2                !
 ! D64   D(4,7,29,36)          178.7111         estimate D2E/DX2                !
 ! D65   D(4,7,29,37)           58.7789         estimate D2E/DX2                !
 ! D66   D(4,7,29,38)          -62.4037         estimate D2E/DX2                !
 ! D67   D(14,7,29,36)         -61.9268         estimate D2E/DX2                !
 ! D68   D(14,7,29,37)         178.141          estimate D2E/DX2                !
 ! D69   D(14,7,29,38)          56.9584         estimate D2E/DX2                !
 ! D70   D(15,7,29,36)          57.1291         estimate D2E/DX2                !
 ! D71   D(15,7,29,37)         -62.8031         estimate D2E/DX2                !
 ! D72   D(15,7,29,38)         176.0143         estimate D2E/DX2                !
 ! D73   D(4,23,24,25)        -179.9084         estimate D2E/DX2                !
 ! D74   D(4,23,24,30)           0.0745         estimate D2E/DX2                !
 ! D75   D(28,23,24,25)          0.7325         estimate D2E/DX2                !
 ! D76   D(28,23,24,30)       -179.2846         estimate D2E/DX2                !
 ! D77   D(4,23,28,27)        -179.9008         estimate D2E/DX2                !
 ! D78   D(4,23,28,34)          -0.6297         estimate D2E/DX2                !
 ! D79   D(24,23,28,27)         -0.5521         estimate D2E/DX2                !
 ! D80   D(24,23,28,34)        178.7191         estimate D2E/DX2                !
 ! D81   D(23,24,25,26)         -0.4182         estimate D2E/DX2                !
 ! D82   D(23,24,25,31)        179.9353         estimate D2E/DX2                !
 ! D83   D(30,24,25,26)        179.5989         estimate D2E/DX2                !
 ! D84   D(30,24,25,31)         -0.0476         estimate D2E/DX2                !
 ! D85   D(24,25,26,27)         -0.0842         estimate D2E/DX2                !
 ! D86   D(24,25,26,32)       -179.7791         estimate D2E/DX2                !
 ! D87   D(31,25,26,27)        179.5614         estimate D2E/DX2                !
 ! D88   D(31,25,26,32)         -0.1335         estimate D2E/DX2                !
 ! D89   D(25,26,27,28)          0.2616         estimate D2E/DX2                !
 ! D90   D(25,26,27,33)       -179.5941         estimate D2E/DX2                !
 ! D91   D(32,26,27,28)        179.9563         estimate D2E/DX2                !
 ! D92   D(32,26,27,33)          0.1007         estimate D2E/DX2                !
 ! D93   D(26,27,28,23)          0.0602         estimate D2E/DX2                !
 ! D94   D(26,27,28,34)       -179.2032         estimate D2E/DX2                !
 ! D95   D(33,27,28,23)        179.9163         estimate D2E/DX2                !
 ! D96   D(33,27,28,34)          0.6529         estimate D2E/DX2                !
 --------------------------------------------------------------------------------
 Trust Radius=3.00D-01 FncErr=1.00D-07 GrdErr=1.00D-06 EigMax=2.50D+02 EigMin=1.00D-04
 Number of steps in this run=    213 maximum allowed number of steps=    228.
 GradGradGradGradGradGradGradGradGradGradGradGradGradGradGradGradGradGrad

 Leave Link  103 at Tue Jan  7 16:43:08 2025, MaxMem=  4026531840 cpu:               0.2 elap:               0.1
 (Enter /usr/local/intel/g16/l202.exe)
                          Input orientation:                          
 ---------------------------------------------------------------------
 Center     Atomic      Atomic             Coordinates (Angstroms)
 Number     Number       Type             X           Y           Z
 ---------------------------------------------------------------------
      1          8           0        1.607855   -0.452241    1.438286
      2          7           0        1.344377   -0.475044    0.145842
      3          6           0        1.800432   -1.662485   -0.620831
      4          6           0        0.362176    0.468678   -0.435654
      5          6           0        3.322455   -1.807717   -0.475966
      6          6           0        1.051625   -2.923723   -0.150596
      7          6           0        0.618216    1.959097   -0.011724
      8          1           0        3.673925   -2.667768   -1.055253
      9          1           0        3.581375   -1.958935    0.575620
     10          1           0        3.835501   -0.908640   -0.832458
     11          1           0        1.395298   -3.796484   -0.715746
     12          1           0       -0.028190   -2.816232   -0.291274
     13          1           0        1.249765   -3.091593    0.912491
     14          6           0       -0.198615    2.858181   -0.970043
     15          6           0        2.121782    2.268056   -0.190773
     16          1           0        0.554582    0.441093   -1.516298
     17          1           0       -1.272930    2.664424   -0.882016
     18          1           0        0.097315    2.704570   -2.016304
     19          1           0       -0.025247    3.911711   -0.723386
     20          1           0        2.462002    2.009766   -1.202630
     21          1           0        2.725766    1.710472    0.530421
     22          1           0        2.302237    3.338428   -0.037771
     23          6           0       -1.065057   -0.027124   -0.208327
     24          6           0       -1.984374   -0.016136   -1.270698
     25          6           0       -3.300938   -0.464504   -1.086274
     26          6           0       -3.709404   -0.938951    0.168325
     27          6           0       -2.792692   -0.962581    1.232090
     28          6           0       -1.480068   -0.511007    1.046392
     29          6           0        0.192212    2.270296    1.438885
     30          1           0       -1.671269    0.344557   -2.247267
     31          1           0       -3.999286   -0.448640   -1.916708
     32          1           0       -4.725582   -1.290115    0.314904
     33          1           0       -3.100001   -1.334609    2.204064
     34          1           0       -0.768770   -0.541627    1.865381
     35          1           0        1.551378   -1.464241   -1.669354
     36          1           0        0.423020    3.318525    1.665375
     37          1           0        0.724157    1.631014    2.146506
     38          1           0       -0.885031    2.127077    1.575697
 ---------------------------------------------------------------------
                    Distance matrix (angstroms):
                    1          2          3          4          5
     1  O    0.000000
     2  N    1.319224   0.000000
     3  C    2.396193   1.485190   0.000000
     4  C    2.431349   1.481036   2.577737   0.000000
     5  C    2.905431   2.464844   1.535784   3.734548   0.000000
     6  C    2.990345   2.483870   1.540310   3.473468   2.551079
     7  C    2.982694   2.545030   3.858044   1.570548   4.660184
     8  H    3.923639   3.417230   2.170090   4.603138   1.094894
     9  H    2.628517   2.718603   2.165903   4.156828   1.093499
    10  H    3.213563   2.711231   2.180499   3.757452   1.094825
    11  H    3.983591   3.431747   2.174188   4.397431   2.779680
    12  H    3.355067   2.748849   2.187144   3.311173   3.504003
    13  H    2.714934   2.728192   2.167178   3.909071   2.805743
    14  C    4.474626   3.838804   4.955256   2.511928   5.866230
    15  C    3.212160   2.870935   3.967035   2.528624   4.258506
    16  H    3.261441   2.055673   2.603660   1.097986   3.714910
    17  H    4.836975   4.214623   5.313748   2.773826   6.425145
    18  H    4.917457   4.042275   4.890718   2.750967   5.756292
    19  H    5.136529   4.677077   5.866454   3.476688   6.631756
    20  H    3.710186   3.040024   3.776452   2.715230   3.980150
    21  H    2.598321   2.613927   3.682182   2.839350   3.707628
    22  H    4.126752   3.936214   5.059733   3.486777   5.264567
    23  C    3.168046   2.476175   3.324995   1.527904   4.742616
    24  C    4.520276   3.646610   4.178223   2.537448   5.657190
    25  C    5.519946   4.805952   5.260777   3.835693   6.785723
    26  C    5.488436   5.075078   5.612892   4.350169   7.114556
    27  C    4.434837   4.304993   5.001997   3.844875   6.405211
    28  C    3.113246   2.964755   3.855803   2.559317   5.202236
    29  C    3.068591   3.245972   4.721818   2.605496   5.485915
    30  H    4.997083   3.936094   4.327380   2.726215   5.719010
    31  H    6.534220   5.727962   6.065430   4.696525   7.584901
    32  H    6.486636   6.126771   6.603266   5.435253   8.103350
    33  H    4.850659   4.972688   5.665843   4.712391   6.975266
    34  H    2.416350   2.725186   3.746782   2.755815   4.880882
    35  H    3.268755   2.077570   1.095778   2.583098   2.163068
    36  H    3.959050   4.189158   5.651059   3.541137   6.266612
    37  H    2.371170   2.970321   4.434372   2.854751   5.045135
    38  H    3.589741   3.712921   5.137823   2.889869   6.115134
                    6          7          8          9         10
     6  C    0.000000
     7  C    4.903984   0.000000
     8  H    2.785745   5.642180   0.000000
     9  H    2.803184   4.947349   1.780662   0.000000
    10  H    3.503635   4.387305   1.780527   1.774932   0.000000
    11  H    1.095088   5.850318   2.565425   3.134190   3.782573
    12  H    1.094233   4.826982   3.783036   3.809911   4.342798
    13  H    1.094346   5.173248   3.150904   2.613963   3.807382
    14  C    5.972019   1.547236   6.748329   6.315220   5.521047
    15  C    5.301077   1.545388   5.245840   4.537094   3.666059
    16  H    3.665267   2.138254   4.428079   4.392918   3.613011
    17  H    6.096386   2.198028   7.275552   6.860352   6.234205
    18  H    6.005769   2.201229   6.525165   6.372207   5.332055
    19  H    6.943407   2.175594   7.555366   7.011392   6.176816
    20  H    5.237867   2.195534   4.834232   4.490630   3.246632
    21  H    4.974163   2.190320   4.752089   3.768111   3.154156
    22  H    6.386806   2.176961   6.244292   5.484022   4.584759
    23  C    3.588030   2.610964   5.490741   5.092720   5.018175
    24  C    4.350400   3.501433   6.252513   6.177453   5.904199
    25  C    5.086065   4.731624   7.314646   7.236121   7.154750
    26  C    5.168020   5.211468   7.681113   7.373040   7.611050
    27  C    4.531740   4.660211   7.068008   6.484783   6.942493
    28  C    3.696410   3.409372   5.969269   5.285483   5.651855
    29  C    5.499352   1.543564   6.536630   5.487991   5.342115
    30  H    4.742556   3.584150   6.250288   6.392577   5.822088
    31  H    5.895497   5.545042   8.033978   8.121521   7.922821
    32  H    6.021751   6.262607   8.621309   8.337915   8.646046
    33  H    5.030478   5.439058   7.634562   6.905244   7.583080
    34  H    3.612808   3.420654   5.726091   4.753526   5.349051
    35  H    2.164825   3.916347   2.516109   3.066842   2.495257
    36  H    6.531352   2.167673   7.335251   6.246147   5.979391
    37  H    5.111706   2.185593   6.118163   4.849651   5.000453
    38  H    5.678143   2.192687   7.120149   6.135506   6.107226
                   11         12         13         14         15
    11  H    0.000000
    12  H    1.779716   0.000000
    13  H    1.780227   1.777088   0.000000
    14  C    6.847612   5.717406   6.406368   0.000000
    15  C    6.130418   5.521093   5.541069   2.517886   0.000000
    16  H    4.393717   3.528523   4.343059   2.589984   2.747895
    17  H    6.992168   5.651190   6.535746   1.095191   3.486975
    18  H    6.755732   5.785390   6.595566   1.098104   2.760720
    19  H    7.838002   6.741806   7.303973   1.095820   2.755905
    20  H    5.923466   5.506531   5.653947   2.802283   1.098325
    21  H    5.800831   5.361950   5.038292   3.481470   1.093534
    22  H    7.224206   6.585969   6.584517   2.711831   1.096207
    23  C    4.529779   2.976759   4.000700   3.107397   3.927353
    24  C    5.101097   3.553374   4.968340   3.397209   4.821233
    25  C    5.770097   4.107740   5.621882   4.547324   6.137972
    26  C    5.916507   4.157734   5.457198   5.295256   6.664576
    27  C    5.418887   3.660482   4.579988   5.116331   6.050918
    28  C    4.708208   3.035023   3.758902   4.130322   4.714562
    29  C    6.549479   5.377248   5.490479   2.510237   2.525674
    30  H    5.375650   4.064013   5.506690   3.180930   4.724008
    31  H    6.461571   4.900728   6.522431   5.126045   6.915690
    32  H    6.693975   4.976141   6.269546   6.273187   7.733220
    33  H    5.898630   4.225866   4.865760   6.006037   6.780963
    34  H    4.683962   3.220784   3.388925   4.463564   4.525194
    35  H    2.524497   2.494398   3.066785   4.715384   4.054825
    36  H    7.565607   6.455022   6.506916   2.746593   2.726639
    37  H    6.172573   5.127065   4.909386   3.474237   2.796793
    38  H    6.748273   5.353136   5.677298   2.736142   3.490160
                   16         17         18         19         20
    16  H    0.000000
    17  H    2.947086   0.000000
    18  H    2.362716   1.779267   0.000000
    19  H    3.606952   1.771328   1.773090   0.000000
    20  H    2.489452   3.805402   2.595489   3.167566   0.000000
    21  H    3.242595   4.346789   3.792465   3.739727   1.778374
    22  H    3.692545   3.734816   3.029530   2.493171   1.774194
    23  C    2.133834   2.782355   3.475923   4.106204   4.192577
    24  C    2.591462   2.800469   3.505938   4.423314   4.886632
    25  C    3.983725   3.734264   4.738788   5.478421   6.272721
    26  C    4.787907   4.474811   5.704293   6.156061   6.975722
    27  C    4.552821   4.464783   5.687899   5.936443   6.509571
    28  C    3.407884   3.720890   4.712556   4.980869   5.191562
    29  C    3.494339   2.772825   3.483666   2.723407   3.492481
    30  H    2.344792   2.721097   2.958191   4.213809   4.576911
    31  H    4.657217   4.265533   5.170570   6.019108   6.949958
    32  H    5.850685   5.384404   6.682243   7.087326   8.053166
    33  H    5.509100   5.371624   6.659527   6.748922   7.329822
    34  H    3.762014   4.252191   5.133749   5.204494   5.134217
    35  H    2.155766   5.063842   4.428731   5.681678   3.621573
    36  H    4.291849   3.129424   3.746703   2.501798   3.754431
    37  H    3.854971   3.772034   4.344472   3.741586   3.792133
    38  H    3.804663   2.545498   3.768418   3.034787   4.351493
                   21         22         23         24         25
    21  H    0.000000
    22  H    1.775517   0.000000
    23  C    4.235012   4.763895   0.000000
    24  C    5.330162   5.581061   1.404954   0.000000
    25  C    6.607979   6.852534   2.441568   1.402992   0.000000
    26  C    6.968642   7.380940   2.822387   2.428601   1.402128
    27  C    6.171785   6.787454   2.436104   2.795189   2.425120
    28  C    4.784374   5.504488   1.407372   2.422422   2.804638
    29  C    2.749110   2.788122   3.093893   4.160185   5.104670
    30  H    5.377285   5.443702   2.159379   1.087116   2.158311
    31  H    7.475060   7.588246   3.421395   2.159690   1.085155
    32  H    8.035705   8.422472   3.907475   3.413411   2.162069
    33  H    6.783300   7.486473   3.416159   3.880331   3.409367
    34  H    4.366446   5.301688   2.157027   3.404236   3.889742
    35  H    4.036954   5.127522   3.323498   3.841546   4.988429
    36  H    3.029289   2.536249   4.113210   5.053319   5.979193
    37  H    2.573807   3.190089   3.390567   4.661172   5.571665
    38  H    3.782065   3.772178   2.802808   3.728791   4.431590
                   26         27         28         29         30
    26  C    0.000000
    27  C    1.404463   0.000000
    28  C    2.433943   1.400494   0.000000
    29  C    5.209241   4.404987   3.268978   0.000000
    30  H    3.411227   3.882283   3.408333   4.557274   0.000000
    31  H    2.161434   3.411002   3.889770   6.018411   2.481551
    32  H    1.085090   2.164387   3.416935   6.174509   4.308793
    33  H    2.161516   1.085162   2.154694   4.941610   4.967416
    34  H    3.418361   2.162064   1.085185   3.002049   4.302755
    35  H    5.597215   5.247950   4.180143   5.045319   3.740480
    36  H    6.119166   5.371816   4.320903   1.096975   5.342219
    37  H    5.493121   4.464428   3.264523   1.091959   5.167038
    38  H    4.399808   3.647358   2.755671   1.095300   4.290758
                   31         32         33         34         35
    31  H    0.000000
    32  H    2.493126   0.000000
    33  H    4.309805   2.492673   0.000000
    34  H    4.974844   4.315156   2.485591   0.000000
    35  H    5.648230   6.585425   6.054378   4.327662   0.000000
    36  H    6.824928   7.040699   5.861187   4.044891   5.938725
    37  H    6.568530   6.448831   4.839671   2.651081   4.982538
    38  H    5.341329   5.293074   4.157428   2.686897   5.418857
                   36         37         38
    36  H    0.000000
    37  H    1.780411   0.000000
    38  H    1.771606   1.778029   0.000000
 Stoichiometry    C14H22NO(2)
 Framework group  C1[X(C14H22NO)]
 Deg. of freedom   108
 Full point group                 C1      NOp   1
 Largest Abelian subgroup         C1      NOp   1
 Largest concise Abelian subgroup C1      NOp   1
                         Standard orientation:                         
 ---------------------------------------------------------------------
 Center     Atomic      Atomic             Coordinates (Angstroms)
 Number     Number       Type             X           Y           Z
 ---------------------------------------------------------------------
      1          8           0        1.607855   -0.452241    1.438286
      2          7           0        1.344377   -0.475044    0.145842
      3          6           0        1.800432   -1.662485   -0.620831
      4          6           0        0.362176    0.468678   -0.435654
      5          6           0        3.322455   -1.807717   -0.475966
      6          6           0        1.051625   -2.923723   -0.150596
      7          6           0        0.618216    1.959097   -0.011724
      8          1           0        3.673925   -2.667768   -1.055253
      9          1           0        3.581375   -1.958935    0.575620
     10          1           0        3.835501   -0.908640   -0.832458
     11          1           0        1.395298   -3.796484   -0.715746
     12          1           0       -0.028190   -2.816232   -0.291274
     13          1           0        1.249765   -3.091593    0.912491
     14          6           0       -0.198615    2.858181   -0.970043
     15          6           0        2.121782    2.268056   -0.190773
     16          1           0        0.554582    0.441093   -1.516298
     17          1           0       -1.272930    2.664424   -0.882016
     18          1           0        0.097315    2.704570   -2.016304
     19          1           0       -0.025247    3.911711   -0.723386
     20          1           0        2.462002    2.009766   -1.202630
     21          1           0        2.725766    1.710472    0.530421
     22          1           0        2.302237    3.338428   -0.037771
     23          6           0       -1.065057   -0.027124   -0.208327
     24          6           0       -1.984374   -0.016136   -1.270698
     25          6           0       -3.300938   -0.464504   -1.086274
     26          6           0       -3.709404   -0.938951    0.168325
     27          6           0       -2.792692   -0.962581    1.232090
     28          6           0       -1.480068   -0.511007    1.046392
     29          6           0        0.192212    2.270296    1.438885
     30          1           0       -1.671269    0.344557   -2.247267
     31          1           0       -3.999286   -0.448640   -1.916708
     32          1           0       -4.725582   -1.290115    0.314904
     33          1           0       -3.100001   -1.334609    2.204064
     34          1           0       -0.768770   -0.541627    1.865381
     35          1           0        1.551378   -1.464241   -1.669354
     36          1           0        0.423020    3.318525    1.665375
     37          1           0        0.724157    1.631014    2.146506
     38          1           0       -0.885031    2.127077    1.575697
 ---------------------------------------------------------------------
 Rotational constants (GHZ):           0.6441146           0.4599064           0.3355168
 Leave Link  202 at Tue Jan  7 16:43:08 2025, MaxMem=  4026531840 cpu:               0.1 elap:               0.2
 (Enter /usr/local/intel/g16/l301.exe)
 Standard basis: def2TZVP (5D, 7F)
 Ernie: Thresh=  0.10000D-02 Tol=  0.10000D-05 Strict=F.
 There are   708 symmetry adapted cartesian basis functions of A   symmetry.
 There are   628 symmetry adapted basis functions of A   symmetry.
   628 basis functions,   992 primitive gaussians,   708 cartesian basis functions
    61 alpha electrons       60 beta electrons
       nuclear repulsion energy      1178.8884678431 Hartrees.
 IExCor= 4336 DFT=T Ex+Corr=M062X ExCW=0 ScaHFX=  0.540000
 ScaDFX=  1.000000  1.000000  1.000000  1.000000 ScalE2=  1.000000  1.000000
 IRadAn=      5 IRanWt=     -1 IRanGd=            0 ICorTp=0 IEmpDi=  4
 NAtoms=   38 NActive=   38 NUniq=   38 SFac= 1.00D+00 NAtFMM=   60 NAOKFM=F Big=F
 Integral buffers will be    131072 words long.
 Raffenetti 2 integral format.
 Two-electron integral symmetry is turned on.
 Leave Link  301 at Tue Jan  7 16:43:09 2025, MaxMem=  4026531840 cpu:               0.9 elap:               0.3
 (Enter /usr/local/intel/g16/l302.exe)
 NPDir=0 NMtPBC=     1 NCelOv=     1 NCel=       1 NClECP=     1 NCelD=      1
         NCelK=      1 NCelE2=     1 NClLst=     1 CellRange=     0.0.
 One-electron integrals computed using PRISM.
 One-electron integral symmetry used in STVInt
   1 Symmetry operations used in ECPInt.
 ECPInt:  NShTT=   34980 NPrTT=  102796 LenC2=   32812 LenP2D=   71733.
 LDataN:  DoStor=T MaxTD1= 6 Len=  172
 NBasis=   628 RedAO= T EigKep=  7.88D-06  NBF=   628
 NBsUse=   628 1.00D-06 EigRej= -1.00D+00 NBFU=   628
 Precomputing XC quadrature grid using
 IXCGrd= 4 IRadAn=           5 IRanWt=          -1 IRanGd=           0 AccXCQ= 0.00D+00.
 Generated NRdTot=       0 NPtTot=           0 NUsed=           0 NTot=          32
 NSgBfM=   703   703   703   703   703 MxSgAt=    38 MxSgA2=    38.
 Leave Link  302 at Tue Jan  7 16:43:10 2025, MaxMem=  4026531840 cpu:              20.6 elap:               1.0
 (Enter /usr/local/intel/g16/l303.exe)
 DipDrv:  MaxL=1.
 Leave Link  303 at Tue Jan  7 16:43:10 2025, MaxMem=  4026531840 cpu:               3.0 elap:               0.2
 (Enter /usr/local/intel/g16/l401.exe)
 ExpMin= 9.52D-02 ExpMax= 2.70D+04 ExpMxC= 9.22D+02 IAcc=3 IRadAn=         5 AccDes= 0.00D+00
 Harris functional with IExCor= 1009 and IRadAn=       5 diagonalized for initial guess.
 HarFok:  IExCor= 1009 AccDes= 0.00D+00 IRadAn=         5 IDoV= 1 UseB2=F ITyADJ=14
 ICtDFT=  3500011 ScaDFX=  1.000000  1.000000  1.000000  1.000000
 FoFCou: FMM=F IPFlag=           0 FMFlag=      100000 FMFlg1=           0
         NFxFlg=           0 DoJE=T BraDBF=F KetDBF=T FulRan=T
         wScrn=  0.000000 ICntrl=       500 IOpCl=  0 I1Cent=   200000004 NGrid=           0
         NMat0=    1 NMatS0=      1 NMatT0=    0 NMatD0=    1 NMtDS0=    0 NMtDT0=    0
 Petite list used in FoFCou.
 Harris En= -676.363433611506    
 JPrj=0 DoOrth=F DoCkMO=F.
 Initial guess <Sx>= 0.0000 <Sy>= 0.0000 <Sz>= 0.5000 <S**2>= 0.7500 S= 0.5000
 Leave Link  401 at Tue Jan  7 16:43:15 2025, MaxMem=  4026531840 cpu:              82.5 elap:               4.1
 (Enter /usr/local/intel/g16/l502.exe)
 Integral symmetry usage will be decided dynamically.
 UHF open shell SCF:
 Using DIIS extrapolation, IDIIS=  1040.
 NGot=  4026531840 LenX=  4025507794 LenY=  4025005822
 Requested convergence on RMS density matrix=1.00D-08 within 128 cycles.
 Requested convergence on MAX density matrix=1.00D-06.
 Requested convergence on             energy=1.00D-06.
 No special actions if energy rises.
 Fock matrices will be formed incrementally for  20 cycles.
 Integral accuracy reduced to 1.0D-05 until final iterations.

 Cycle   1  Pass 0  IDiag  1:
 FoFJK:  IHMeth= 1 ICntrl=       0 DoSepK=F KAlg= 0 I1Cent=           0 FoldK=F
 IRaf= 890000000 NMat=       1 IRICut=       1 DoRegI=T DoRafI=F ISym2E= 0 IDoP0=0 IntGTp=1.
 FoFCou: FMM=F IPFlag=           0 FMFlag=      100000 FMFlg1=           0
         NFxFlg=           0 DoJE=F BraDBF=F KetDBF=F FulRan=T
         wScrn=  0.000000 ICntrl=         0 IOpCl=  1 I1Cent=           0 NGrid=           0
         NMat0=    1 NMatS0=      1 NMatT0=    0 NMatD0=    1 NMtDS0=    0 NMtDT0=    0
 Symmetry not used in FoFCou.
 E= -676.033015980831    
 DIIS: error= 1.90D-02 at cycle   1 NSaved=   1.
 NSaved= 1 IEnMin= 1 EnMin= -676.033015980831     IErMin= 1 ErrMin= 1.90D-02
 ErrMax= 1.90D-02  0.00D+00 EMaxC= 1.00D-01 BMatC= 2.54D+00 BMatP= 2.54D+00
 IDIUse=3 WtCom= 8.10D-01 WtEn= 1.90D-01
 Coeff-Com:  0.100D+01
 Coeff-En:   0.100D+01
 Coeff:      0.100D+01
 Gap=     0.375 Goal=   None    Shift=    0.000
 Gap=     0.219 Goal=   None    Shift=    0.000
 GapD=    0.219 DampG=1.000 DampE=0.500 DampFc=0.5000 IDamp=-1.
 Damping current iteration by 5.00D-01
 RMSDP=2.44D-03 MaxDP=1.51D-01              OVMax= 1.75D-01

 Cycle   2  Pass 0  IDiag  1:
 RMSU=  1.21D-03    CP:  9.70D-01
 E= -676.308683663614     Delta-E=       -0.275667682783 Rises=F Damp=T
 DIIS: error= 4.21D-03 at cycle   2 NSaved=   2.
 NSaved= 2 IEnMin= 2 EnMin= -676.308683663614     IErMin= 2 ErrMin= 4.21D-03
 ErrMax= 4.21D-03  0.00D+00 EMaxC= 1.00D-01 BMatC= 1.98D-01 BMatP= 2.54D+00
 IDIUse=3 WtCom= 9.58D-01 WtEn= 4.21D-02
 Coeff-Com: -0.516D-01 0.105D+01
 Coeff-En:   0.000D+00 0.100D+01
 Coeff:     -0.494D-01 0.105D+01
 Gap=     0.344 Goal=   None    Shift=    0.000
 Gap=     0.279 Goal=   None    Shift=    0.000
 RMSDP=1.20D-03 MaxDP=1.31D-01 DE=-2.76D-01 OVMax= 1.27D-01

 Cycle   3  Pass 0  IDiag  1:
 RMSU=  1.12D-03    CP:  9.50D-01  1.34D+00
 E= -676.567458678187     Delta-E=       -0.258775014573 Rises=F Damp=F
 DIIS: error= 4.99D-03 at cycle   3 NSaved=   3.
 NSaved= 3 IEnMin= 3 EnMin= -676.567458678187     IErMin= 2 ErrMin= 4.21D-03
 ErrMax= 4.99D-03  0.00D+00 EMaxC= 1.00D-01 BMatC= 1.26D-01 BMatP= 1.98D-01
 IDIUse=3 WtCom= 9.50D-01 WtEn= 4.99D-02
 Coeff-Com: -0.826D-01 0.488D+00 0.595D+00
 Coeff-En:   0.000D+00 0.000D+00 0.100D+01
 Coeff:     -0.784D-01 0.464D+00 0.615D+00
 Gap=     0.282 Goal=   None    Shift=    0.000
 Gap=     0.274 Goal=   None    Shift=    0.000
 RMSDP=3.76D-04 MaxDP=3.00D-02 DE=-2.59D-01 OVMax= 8.64D-02

 Cycle   4  Pass 0  IDiag  1:
 RMSU=  3.50D-04    CP:  9.54D-01  1.44D+00  9.50D-01
 E= -676.585266356082     Delta-E=       -0.017807677895 Rises=F Damp=F
 DIIS: error= 3.22D-03 at cycle   4 NSaved=   4.
 NSaved= 4 IEnMin= 4 EnMin= -676.585266356082     IErMin= 4 ErrMin= 3.22D-03
 ErrMax= 3.22D-03  0.00D+00 EMaxC= 1.00D-01 BMatC= 3.42D-02 BMatP= 1.26D-01
 IDIUse=3 WtCom= 9.68D-01 WtEn= 3.22D-02
 Coeff-Com: -0.297D-01 0.903D-01 0.366D+00 0.574D+00
 Coeff-En:   0.000D+00 0.000D+00 0.219D+00 0.781D+00
 Coeff:     -0.288D-01 0.874D-01 0.361D+00 0.580D+00
 Gap=     0.281 Goal=   None    Shift=    0.000
 Gap=     0.277 Goal=   None    Shift=    0.000
 RMSDP=1.82D-04 MaxDP=2.52D-02 DE=-1.78D-02 OVMax= 2.10D-02

 Cycle   5  Pass 0  IDiag  1:
 RMSU=  1.27D-04    CP:  9.50D-01  1.41D+00  9.82D-01  6.64D-01
 E= -676.591590354146     Delta-E=       -0.006323998064 Rises=F Damp=F
 DIIS: error= 6.03D-04 at cycle   5 NSaved=   5.
 NSaved= 5 IEnMin= 5 EnMin= -676.591590354146     IErMin= 5 ErrMin= 6.03D-04
 ErrMax= 6.03D-04  0.00D+00 EMaxC= 1.00D-01 BMatC= 7.05D-04 BMatP= 3.42D-02
 IDIUse=3 WtCom= 9.94D-01 WtEn= 6.03D-03
 Coeff-Com: -0.601D-02 0.883D-02 0.112D+00 0.211D+00 0.674D+00
 Coeff-En:   0.000D+00 0.000D+00 0.000D+00 0.000D+00 0.100D+01
 Coeff:     -0.598D-02 0.878D-02 0.111D+00 0.210D+00 0.676D+00
 Gap=     0.277 Goal=   None    Shift=    0.000
 Gap=     0.278 Goal=   None    Shift=    0.000
 RMSDP=4.40D-05 MaxDP=6.94D-03 DE=-6.32D-03 OVMax= 8.24D-03

 Cycle   6  Pass 0  IDiag  1:
 RMSU=  3.87D-05    CP:  9.50D-01  1.41D+00  9.96D-01  7.00D-01  9.80D-01
 E= -676.591776837471     Delta-E=       -0.000186483325 Rises=F Damp=F
 DIIS: error= 1.74D-04 at cycle   6 NSaved=   6.
 NSaved= 6 IEnMin= 6 EnMin= -676.591776837471     IErMin= 6 ErrMin= 1.74D-04
 ErrMax= 1.74D-04  0.00D+00 EMaxC= 1.00D-01 BMatC= 1.42D-04 BMatP= 7.05D-04
 IDIUse=3 WtCom= 9.98D-01 WtEn= 1.74D-03
 Coeff-Com:  0.248D-02-0.969D-02-0.430D-02-0.104D-01 0.250D+00 0.772D+00
 Coeff-En:   0.000D+00 0.000D+00 0.000D+00 0.000D+00 0.000D+00 0.100D+01
 Coeff:      0.248D-02-0.967D-02-0.429D-02-0.104D-01 0.249D+00 0.772D+00
 Gap=     0.279 Goal=   None    Shift=    0.000
 Gap=     0.278 Goal=   None    Shift=    0.000
 RMSDP=3.58D-05 MaxDP=2.95D-03 DE=-1.86D-04 OVMax= 3.42D-03

 Cycle   7  Pass 0  IDiag  1:
 RMSU=  1.90D-05    CP:  9.50D-01  1.41D+00  1.01D+00  7.05D-01  1.18D+00
                    CP:  1.30D+00
 E= -676.591827973534     Delta-E=       -0.000051136063 Rises=F Damp=F
 DIIS: error= 9.40D-05 at cycle   7 NSaved=   7.
 NSaved= 7 IEnMin= 7 EnMin= -676.591827973534     IErMin= 7 ErrMin= 9.40D-05
 ErrMax= 9.40D-05  0.00D+00 EMaxC= 1.00D-01 BMatC= 2.96D-05 BMatP= 1.42D-04
 IDIUse=1 WtCom= 1.00D+00 WtEn= 0.00D+00
 Coeff-Com:  0.229D-02-0.524D-02-0.221D-01-0.554D-01-0.630D-01 0.226D+00
 Coeff-Com:  0.918D+00
 Coeff:      0.229D-02-0.524D-02-0.221D-01-0.554D-01-0.630D-01 0.226D+00
 Coeff:      0.918D+00
 Gap=     0.280 Goal=   None    Shift=    0.000
 Gap=     0.278 Goal=   None    Shift=    0.000
 RMSDP=3.01D-05 MaxDP=3.18D-03 DE=-5.11D-05 OVMax= 3.09D-03

 Cycle   8  Pass 0  IDiag  1:
 RMSU=  1.35D-05    CP:  9.50D-01  1.41D+00  1.01D+00  7.19D-01  1.32D+00
                    CP:  1.66D+00  1.62D+00
 E= -676.591844628300     Delta-E=       -0.000016654765 Rises=F Damp=F
 DIIS: error= 6.73D-05 at cycle   8 NSaved=   8.
 NSaved= 8 IEnMin= 8 EnMin= -676.591844628300     IErMin= 8 ErrMin= 6.73D-05
 ErrMax= 6.73D-05  0.00D+00 EMaxC= 1.00D-01 BMatC= 1.05D-05 BMatP= 2.96D-05
 IDIUse=1 WtCom= 1.00D+00 WtEn= 0.00D+00
 Coeff-Com:  0.776D-03-0.959D-03-0.907D-02-0.292D-01-0.760D-01-0.352D-01
 Coeff-Com:  0.480D+00 0.669D+00
 Coeff:      0.776D-03-0.959D-03-0.907D-02-0.292D-01-0.760D-01-0.352D-01
 Coeff:      0.480D+00 0.669D+00
 Gap=     0.280 Goal=   None    Shift=    0.000
 Gap=     0.279 Goal=   None    Shift=    0.000
 RMSDP=1.90D-05 MaxDP=1.44D-03 DE=-1.67D-05 OVMax= 1.32D-03

 Cycle   9  Pass 0  IDiag  1:
 RMSU=  1.02D-05    CP:  9.50D-01  1.41D+00  1.02D+00  7.21D-01  1.39D+00
                    CP:  1.76D+00  2.00D+00  1.71D+00
 E= -676.591847841388     Delta-E=       -0.000003213088 Rises=F Damp=F
 DIIS: error= 2.20D-05 at cycle   9 NSaved=   9.
 NSaved= 9 IEnMin= 9 EnMin= -676.591847841388     IErMin= 9 ErrMin= 2.20D-05
 ErrMax= 2.20D-05  0.00D+00 EMaxC= 1.00D-01 BMatC= 1.64D-06 BMatP= 1.05D-05
 IDIUse=1 WtCom= 1.00D+00 WtEn= 0.00D+00
 Coeff-Com: -0.403D-03 0.110D-02 0.522D-02 0.755D-02 0.718D-02-0.718D-01
 Coeff-Com: -0.171D+00 0.147D+00 0.108D+01
 Coeff:     -0.403D-03 0.110D-02 0.522D-02 0.755D-02 0.718D-02-0.718D-01
 Coeff:     -0.171D+00 0.147D+00 0.108D+01
 Gap=     0.280 Goal=   None    Shift=    0.000
 Gap=     0.278 Goal=   None    Shift=    0.000
 RMSDP=3.04D-05 MaxDP=1.86D-03 DE=-3.21D-06 OVMax= 8.73D-04

 Cycle  10  Pass 0  IDiag  1:
 RMSU=  9.39D-06    CP:  9.51D-01  1.41D+00  1.02D+00  7.30D-01  1.47D+00
                    CP:  1.87D+00  2.59D+00  3.00D+00  2.44D+00
 E= -676.591844734681     Delta-E=        0.000003106707 Rises=F Damp=F
 DIIS: error= 1.34D-05 at cycle  10 NSaved=  10.
 NSaved=10 IEnMin= 9 EnMin= -676.591847841388     IErMin=10 ErrMin= 1.34D-05
 ErrMax= 1.34D-05  0.00D+00 EMaxC= 1.00D-01 BMatC= 3.44D-07 BMatP= 1.64D-06
 IDIUse=1 WtCom= 1.00D+00 WtEn= 0.00D+00
 Coeff-Com: -0.197D-03 0.433D-03 0.296D-02 0.540D-02 0.110D-01-0.242D-01
 Coeff-Com: -0.116D+00-0.845D-02 0.402D+00 0.727D+00
 Coeff:     -0.197D-03 0.433D-03 0.296D-02 0.540D-02 0.110D-01-0.242D-01
 Coeff:     -0.116D+00-0.845D-02 0.402D+00 0.727D+00
 Gap=     0.280 Goal=   None    Shift=    0.000
 Gap=     0.278 Goal=   None    Shift=    0.000
 RMSDP=2.74D-05 MaxDP=1.70D-03 DE= 3.11D-06 OVMax= 2.29D-04

 Cycle  11  Pass 0  IDiag  1:
 RMSU=  1.78D-05    CP:  9.51D-01  1.41D+00  1.03D+00  7.40D-01  1.53D+00
                    CP:  1.94D+00  3.00D+00  3.00D+00  3.00D+00  2.18D+00
 E= -676.591841015814     Delta-E=        0.000003718867 Rises=F Damp=F
 DIIS: error= 1.67D-05 at cycle  11 NSaved=  11.
 NSaved=11 IEnMin= 9 EnMin= -676.591847841388     IErMin=10 ErrMin= 1.34D-05
 ErrMax= 1.67D-05  0.00D+00 EMaxC= 1.00D-01 BMatC= 3.08D-07 BMatP= 3.44D-07
 IDIUse=1 WtCom= 1.00D+00 WtEn= 0.00D+00
 Coeff-Com: -0.153D-03 0.336D-03 0.239D-02 0.428D-02 0.903D-02-0.193D-01
 Coeff-Com: -0.927D-01-0.675D-02 0.318D+00 0.591D+00 0.193D+00
 Coeff:     -0.153D-03 0.336D-03 0.239D-02 0.428D-02 0.903D-02-0.193D-01
 Coeff:     -0.927D-01-0.675D-02 0.318D+00 0.591D+00 0.193D+00
 Gap=     0.280 Goal=   None    Shift=    0.000
 Gap=     0.278 Goal=   None    Shift=    0.000
 RMSDP=8.33D-06 MaxDP=5.24D-04 DE= 3.72D-06 OVMax= 1.42D-05

 Initial convergence to 1.0D-05 achieved.  Increase integral accuracy.
 Cycle  12  Pass 1  IDiag  1:
 E= -676.591849270938     Delta-E=       -0.000008255124 Rises=F Damp=F
 DIIS: error= 3.88D-04 at cycle   1 NSaved=   1.
 NSaved= 1 IEnMin= 1 EnMin= -676.591849270938     IErMin= 1 ErrMin= 3.88D-04
 ErrMax= 3.88D-04  0.00D+00 EMaxC= 1.00D-01 BMatC= 1.04D-04 BMatP= 1.04D-04
 IDIUse=3 WtCom= 9.96D-01 WtEn= 3.88D-03
 Coeff-Com:  0.100D+01
 Coeff-En:   0.100D+01
 Coeff:      0.100D+01
 Gap=     0.280 Goal=   None    Shift=    0.000
 Gap=     0.278 Goal=   None    Shift=    0.000
 RMSDP=8.33D-06 MaxDP=5.24D-04 DE=-8.26D-06 OVMax= 6.90D-04

 Cycle  13  Pass 1  IDiag  1:
 RMSU=  9.07D-04    CP:  9.73D-01
 E= -676.591865297790     Delta-E=       -0.000016026851 Rises=F Damp=F
 DIIS: error= 9.54D-06 at cycle   2 NSaved=   2.
 NSaved= 2 IEnMin= 2 EnMin= -676.591865297790     IErMin= 2 ErrMin= 9.54D-06
 ErrMax= 9.54D-06  0.00D+00 EMaxC= 1.00D-01 BMatC= 7.98D-08 BMatP= 1.04D-04
 IDIUse=1 WtCom= 1.00D+00 WtEn= 0.00D+00
 Coeff-Com: -0.164D-01 0.102D+01
 Coeff:     -0.164D-01 0.102D+01
 Gap=     0.280 Goal=   None    Shift=    0.000
 Gap=     0.278 Goal=   None    Shift=    0.000
 RMSDP=2.81D-05 MaxDP=1.40D-03 DE=-1.60D-05 OVMax= 8.99D-05

 Cycle  14  Pass 1  IDiag  1:
 RMSU=  1.36D-05    CP:  9.72D-01  1.03D+00
 E= -676.591865321773     Delta-E=       -0.000000023983 Rises=F Damp=F
 DIIS: error= 2.96D-06 at cycle   3 NSaved=   3.
 NSaved= 3 IEnMin= 3 EnMin= -676.591865321773     IErMin= 3 ErrMin= 2.96D-06
 ErrMax= 2.96D-06  0.00D+00 EMaxC= 1.00D-01 BMatC= 4.15D-08 BMatP= 7.98D-08
 IDIUse=1 WtCom= 1.00D+00 WtEn= 0.00D+00
 Coeff-Com: -0.792D-02 0.465D+00 0.543D+00
 Coeff:     -0.792D-02 0.465D+00 0.543D+00
 Gap=     0.280 Goal=   None    Shift=    0.000
 Gap=     0.278 Goal=   None    Shift=    0.000
 RMSDP=5.56D-07 MaxDP=2.54D-05 DE=-2.40D-08 OVMax= 2.27D-05

 Cycle  15  Pass 1  IDiag  1:
 RMSU=  3.05D-07    CP:  9.72D-01  1.03D+00  1.02D+00
 E= -676.591865329912     Delta-E=       -0.000000008139 Rises=F Damp=F
 DIIS: error= 1.47D-06 at cycle   4 NSaved=   4.
 NSaved= 4 IEnMin= 4 EnMin= -676.591865329912     IErMin= 4 ErrMin= 1.47D-06
 ErrMax= 1.47D-06  0.00D+00 EMaxC= 1.00D-01 BMatC= 6.27D-09 BMatP= 4.15D-08
 IDIUse=1 WtCom= 1.00D+00 WtEn= 0.00D+00
 Coeff-Com:  0.289D-03-0.295D-01 0.241D+00 0.788D+00
 Coeff:      0.289D-03-0.295D-01 0.241D+00 0.788D+00
 Gap=     0.280 Goal=   None    Shift=    0.000
 Gap=     0.278 Goal=   None    Shift=    0.000
 RMSDP=4.91D-07 MaxDP=3.00D-05 DE=-8.14D-09 OVMax= 3.78D-05

 Cycle  16  Pass 1  IDiag  1:
 RMSU=  1.92D-07    CP:  9.72D-01  1.03D+00  1.04D+00  1.36D+00
 E= -676.591865332245     Delta-E=       -0.000000002333 Rises=F Damp=F
 DIIS: error= 8.52D-07 at cycle   5 NSaved=   5.
 NSaved= 5 IEnMin= 5 EnMin= -676.591865332245     IErMin= 5 ErrMin= 8.52D-07
 ErrMax= 8.52D-07  0.00D+00 EMaxC= 1.00D-01 BMatC= 2.32D-09 BMatP= 6.27D-09
 IDIUse=1 WtCom= 1.00D+00 WtEn= 0.00D+00
 Coeff-Com:  0.122D-02-0.782D-01 0.291D-01 0.442D+00 0.606D+00
 Coeff:      0.122D-02-0.782D-01 0.291D-01 0.442D+00 0.606D+00
 Gap=     0.280 Goal=   None    Shift=    0.000
 Gap=     0.278 Goal=   None    Shift=    0.000
 RMSDP=1.05D-07 MaxDP=1.00D-05 DE=-2.33D-09 OVMax= 9.95D-06

 Cycle  17  Pass 1  IDiag  1:
 RMSU=  5.16D-08    CP:  9.72D-01  1.03D+00  1.04D+00  1.54D+00  1.19D+00
 E= -676.591865333003     Delta-E=       -0.000000000758 Rises=F Damp=F
 DIIS: error= 3.91D-07 at cycle   6 NSaved=   6.
 NSaved= 6 IEnMin= 6 EnMin= -676.591865333003     IErMin= 6 ErrMin= 3.91D-07
 ErrMax= 3.91D-07  0.00D+00 EMaxC= 1.00D-01 BMatC= 3.52D-10 BMatP= 2.32D-09
 IDIUse=1 WtCom= 1.00D+00 WtEn= 0.00D+00
 Coeff-Com:  0.200D-04 0.338D-02-0.127D+00-0.197D+00-0.723D-01 0.139D+01
 Coeff:      0.200D-04 0.338D-02-0.127D+00-0.197D+00-0.723D-01 0.139D+01
 Gap=     0.280 Goal=   None    Shift=    0.000
 Gap=     0.278 Goal=   None    Shift=    0.000
 RMSDP=1.03D-07 MaxDP=6.90D-06 DE=-7.58D-10 OVMax= 1.75D-05

 Cycle  18  Pass 1  IDiag  1:
 RMSU=  5.36D-08    CP:  9.72D-01  1.03D+00  1.04D+00  1.69D+00  1.34D+00
                    CP:  2.06D+00
 E= -676.591865333442     Delta-E=       -0.000000000439 Rises=F Damp=F
 DIIS: error= 2.82D-07 at cycle   7 NSaved=   7.
 NSaved= 7 IEnMin= 7 EnMin= -676.591865333442     IErMin= 7 ErrMin= 2.82D-07
 ErrMax= 2.82D-07  0.00D+00 EMaxC= 1.00D-01 BMatC= 1.37D-10 BMatP= 3.52D-10
 IDIUse=1 WtCom= 1.00D+00 WtEn= 0.00D+00
 Coeff-Com: -0.202D-03 0.155D-01-0.787D-01-0.177D+00-0.174D+00 0.777D+00
 Coeff-Com:  0.637D+00
 Coeff:     -0.202D-03 0.155D-01-0.787D-01-0.177D+00-0.174D+00 0.777D+00
 Coeff:      0.637D+00
 Gap=     0.280 Goal=   None    Shift=    0.000
 Gap=     0.278 Goal=   None    Shift=    0.000
 RMSDP=2.82D-08 MaxDP=1.91D-06 DE=-4.39D-10 OVMax= 6.18D-06

 Cycle  19  Pass 1  IDiag  1:
 RMSU=  1.58D-08    CP:  9.72D-01  1.03D+00  1.04D+00  1.71D+00  1.34D+00
                    CP:  2.38D+00  1.12D+00
 E= -676.591865333518     Delta-E=       -0.000000000076 Rises=F Damp=F
 DIIS: error= 9.90D-08 at cycle   8 NSaved=   8.
 NSaved= 8 IEnMin= 8 EnMin= -676.591865333518     IErMin= 8 ErrMin= 9.90D-08
 ErrMax= 9.90D-08  0.00D+00 EMaxC= 1.00D-01 BMatC= 1.39D-11 BMatP= 1.37D-10
 IDIUse=1 WtCom= 1.00D+00 WtEn= 0.00D+00
 Coeff-Com: -0.567D-04 0.337D-02 0.348D-02-0.464D-02-0.353D-01-0.653D-01
 Coeff-Com:  0.164D+00 0.935D+00
 Coeff:     -0.567D-04 0.337D-02 0.348D-02-0.464D-02-0.353D-01-0.653D-01
 Coeff:      0.164D+00 0.935D+00
 Gap=     0.280 Goal=   None    Shift=    0.000
 Gap=     0.278 Goal=   None    Shift=    0.000
 RMSDP=1.89D-08 MaxDP=2.66D-06 DE=-7.57D-11 OVMax= 3.65D-06

 Cycle  20  Pass 1  IDiag  1:
 RMSU=  1.27D-08    CP:  9.72D-01  1.03D+00  1.04D+00  1.70D+00  1.29D+00
                    CP:  2.38D+00  1.24D+00  1.51D+00
 E= -676.591865333531     Delta-E=       -0.000000000013 Rises=F Damp=F
 DIIS: error= 5.69D-08 at cycle   9 NSaved=   9.
 NSaved= 9 IEnMin= 9 EnMin= -676.591865333531     IErMin= 9 ErrMin= 5.69D-08
 ErrMax= 5.69D-08  0.00D+00 EMaxC= 1.00D-01 BMatC= 5.45D-12 BMatP= 1.39D-11
 IDIUse=1 WtCom= 1.00D+00 WtEn= 0.00D+00
 Coeff-Com:  0.297D-04-0.280D-02 0.256D-01 0.500D-01 0.354D-01-0.262D+00
 Coeff-Com: -0.114D+00 0.432D+00 0.836D+00
 Coeff:      0.297D-04-0.280D-02 0.256D-01 0.500D-01 0.354D-01-0.262D+00
 Coeff:     -0.114D+00 0.432D+00 0.836D+00
 Gap=     0.280 Goal=   None    Shift=    0.000
 Gap=     0.278 Goal=   None    Shift=    0.000
 RMSDP=1.30D-08 MaxDP=1.37D-06 DE=-1.32D-11 OVMax= 2.53D-06

 Cycle  21  Pass 1  IDiag  1:
 RMSU=  4.46D-09    CP:  9.72D-01  1.03D+00  1.04D+00  1.69D+00  1.26D+00
                    CP:  2.36D+00  1.25D+00  1.97D+00  1.56D+00
 E= -676.591865333536     Delta-E=       -0.000000000005 Rises=F Damp=F
 DIIS: error= 3.10D-08 at cycle  10 NSaved=  10.
 NSaved=10 IEnMin=10 EnMin= -676.591865333536     IErMin=10 ErrMin= 3.10D-08
 ErrMax= 3.10D-08  0.00D+00 EMaxC= 1.00D-01 BMatC= 1.13D-12 BMatP= 5.45D-12
 IDIUse=1 WtCom= 1.00D+00 WtEn= 0.00D+00
 Coeff-Com:  0.224D-04-0.155D-02 0.481D-02 0.104D-01 0.186D-01-0.404D-01
 Coeff-Com: -0.659D-01-0.155D+00 0.182D+00 0.105D+01
 Coeff:      0.224D-04-0.155D-02 0.481D-02 0.104D-01 0.186D-01-0.404D-01
 Coeff:     -0.659D-01-0.155D+00 0.182D+00 0.105D+01
 Gap=     0.280 Goal=   None    Shift=    0.000
 Gap=     0.278 Goal=   None    Shift=    0.000
 RMSDP=7.00D-09 MaxDP=5.84D-07 DE=-4.77D-12 OVMax= 1.70D-06

 SCF Done:  E(UM062X) =  -676.591865334     A.U. after   21 cycles
            NFock= 21  Conv=0.70D-08     -V/T= 2.0061
 <Sx>= 0.0000 <Sy>= 0.0000 <Sz>= 0.5000 <S**2>= 0.7558 S= 0.5029
 <L.S>=  0.00000000000    
 KE= 6.725097509877D+02 PE=-3.928859723791D+03 EE= 1.400869639627D+03
 Annihilation of the first spin contaminant:
 S**2 before annihilation     0.7558,   after     0.7500
 Leave Link  502 at Tue Jan  7 16:55:11 2025, MaxMem=  4026531840 cpu:           14310.8 elap:             715.8
 (Enter /usr/local/intel/g16/l601.exe)
 Copying SCF densities to generalized density rwf, IOpCl= 1 IROHF=0.

 **********************************************************************

            Population analysis using the SCF Density.

 **********************************************************************

 Orbital symmetries:
 Alpha Orbitals:
       Occupied  (A) (A) (A) (A) (A) (A) (A) (A) (A) (A) (A) (A)
                 (A) (A) (A) (A) (A) (A) (A) (A) (A) (A) (A) (A)
                 (A) (A) (A) (A) (A) (A) (A) (A) (A) (A) (A) (A)
                 (A) (A) (A) (A) (A) (A) (A) (A) (A) (A) (A) (A)
                 (A) (A) (A) (A) (A) (A) (A) (A) (A) (A) (A) (A)
                 (A)
       Virtual   (A) (A) (A) (A) (A) (A) (A) (A) (A) (A) (A) (A)
                 (A) (A) (A) (A) (A) (A) (A) (A) (A) (A) (A) (A)
                 (A) (A) (A) (A) (A) (A) (A) (A) (A) (A) (A) (A)
                 (A) (A) (A) (A) (A) (A) (A) (A) (A) (A) (A) (A)
                 (A) (A) (A) (A) (A) (A) (A) (A) (A) (A) (A) (A)
                 (A) (A) (A) (A) (A) (A) (A) (A) (A) (A) (A) (A)
                 (A) (A) (A) (A) (A) (A) (A) (A) (A) (A) (A) (A)
                 (A) (A) (A) (A) (A) (A) (A) (A) (A) (A) (A) (A)
                 (A) (A) (A) (A) (A) (A) (A) (A) (A) (A) (A) (A)
                 (A) (A) (A) (A) (A) (A) (A) (A) (A) (A) (A) (A)
                 (A) (A) (A) (A) (A) (A) (A) (A) (A) (A) (A) (A)
                 (A) (A) (A) (A) (A) (A) (A) (A) (A) (A) (A) (A)
                 (A) (A) (A) (A) (A) (A) (A) (A) (A) (A) (A) (A)
                 (A) (A) (A) (A) (A) (A) (A) (A) (A) (A) (A) (A)
                 (A) (A) (A) (A) (A) (A) (A) (A) (A) (A) (A) (A)
                 (A) (A) (A) (A) (A) (A) (A) (A) (A) (A) (A) (A)
                 (A) (A) (A) (A) (A) (A) (A) (A) (A) (A) (A) (A)
                 (A) (A) (A) (A) (A) (A) (A) (A) (A) (A) (A) (A)
                 (A) (A) (A) (A) (A) (A) (A) (A) (A) (A) (A) (A)
                 (A) (A) (A) (A) (A) (A) (A) (A) (A) (A) (A) (A)
                 (A) (A) (A) (A) (A) (A) (A) (A) (A) (A) (A) (A)
                 (A) (A) (A) (A) (A) (A) (A) (A) (A) (A) (A) (A)
                 (A) (A) (A) (A) (A) (A) (A) (A) (A) (A) (A) (A)
                 (A) (A) (A) (A) (A) (A) (A) (A) (A) (A) (A) (A)
                 (A) (A) (A) (A) (A) (A) (A) (A) (A) (A) (A) (A)
                 (A) (A) (A) (A) (A) (A) (A) (A) (A) (A) (A) (A)
                 (A) (A) (A) (A) (A) (A) (A) (A) (A) (A) (A) (A)
                 (A) (A) (A) (A) (A) (A) (A) (A) (A) (A) (A) (A)
                 (A) (A) (A) (A) (A) (A) (A) (A) (A) (A) (A) (A)
                 (A) (A) (A) (A) (A) (A) (A) (A) (A) (A) (A) (A)
                 (A) (A) (A) (A) (A) (A) (A) (A) (A) (A) (A) (A)
                 (A) (A) (A) (A) (A) (A) (A) (A) (A) (A) (A) (A)
                 (A) (A) (A) (A) (A) (A) (A) (A) (A) (A) (A) (A)
                 (A) (A) (A) (A) (A) (A) (A) (A) (A) (A) (A) (A)
                 (A) (A) (A) (A) (A) (A) (A) (A) (A) (A) (A) (A)
                 (A) (A) (A) (A) (A) (A) (A) (A) (A) (A) (A) (A)
                 (A) (A) (A) (A) (A) (A) (A) (A) (A) (A) (A) (A)
                 (A) (A) (A) (A) (A) (A) (A) (A) (A) (A) (A) (A)
                 (A) (A) (A) (A) (A) (A) (A) (A) (A) (A) (A) (A)
                 (A) (A) (A) (A) (A) (A) (A) (A) (A) (A) (A) (A)
                 (A) (A) (A) (A) (A) (A) (A) (A) (A) (A) (A) (A)
                 (A) (A) (A) (A) (A) (A) (A) (A) (A) (A) (A) (A)
                 (A) (A) (A) (A) (A) (A) (A) (A) (A) (A) (A) (A)
                 (A) (A) (A) (A) (A) (A) (A) (A) (A) (A) (A) (A)
                 (A) (A) (A) (A) (A) (A) (A) (A) (A) (A) (A) (A)
                 (A) (A) (A) (A) (A) (A) (A) (A) (A) (A) (A) (A)
                 (A) (A) (A) (A) (A) (A) (A) (A) (A) (A) (A) (A)
                 (A) (A) (A)
 Beta  Orbitals:
       Occupied  (A) (A) (A) (A) (A) (A) (A) (A) (A) (A) (A) (A)
                 (A) (A) (A) (A) (A) (A) (A) (A) (A) (A) (A) (A)
                 (A) (A) (A) (A) (A) (A) (A) (A) (A) (A) (A) (A)
                 (A) (A) (A) (A) (A) (A) (A) (A) (A) (A) (A) (A)
                 (A) (A) (A) (A) (A) (A) (A) (A) (A) (A) (A) (A)
       Virtual   (A) (A) (A) (A) (A) (A) (A) (A) (A) (A) (A) (A)
                 (A) (A) (A) (A) (A) (A) (A) (A) (A) (A) (A) (A)
                 (A) (A) (A) (A) (A) (A) (A) (A) (A) (A) (A) (A)
                 (A) (A) (A) (A) (A) (A) (A) (A) (A) (A) (A) (A)
                 (A) (A) (A) (A) (A) (A) (A) (A) (A) (A) (A) (A)
                 (A) (A) (A) (A) (A) (A) (A) (A) (A) (A) (A) (A)
                 (A) (A) (A) (A) (A) (A) (A) (A) (A) (A) (A) (A)
                 (A) (A) (A) (A) (A) (A) (A) (A) (A) (A) (A) (A)
                 (A) (A) (A) (A) (A) (A) (A) (A) (A) (A) (A) (A)
                 (A) (A) (A) (A) (A) (A) (A) (A) (A) (A) (A) (A)
                 (A) (A) (A) (A) (A) (A) (A) (A) (A) (A) (A) (A)
                 (A) (A) (A) (A) (A) (A) (A) (A) (A) (A) (A) (A)
                 (A) (A) (A) (A) (A) (A) (A) (A) (A) (A) (A) (A)
                 (A) (A) (A) (A) (A) (A) (A) (A) (A) (A) (A) (A)
                 (A) (A) (A) (A) (A) (A) (A) (A) (A) (A) (A) (A)
                 (A) (A) (A) (A) (A) (A) (A) (A) (A) (A) (A) (A)
                 (A) (A) (A) (A) (A) (A) (A) (A) (A) (A) (A) (A)
                 (A) (A) (A) (A) (A) (A) (A) (A) (A) (A) (A) (A)
                 (A) (A) (A) (A) (A) (A) (A) (A) (A) (A) (A) (A)
                 (A) (A) (A) (A) (A) (A) (A) (A) (A) (A) (A) (A)
                 (A) (A) (A) (A) (A) (A) (A) (A) (A) (A) (A) (A)
                 (A) (A) (A) (A) (A) (A) (A) (A) (A) (A) (A) (A)
                 (A) (A) (A) (A) (A) (A) (A) (A) (A) (A) (A) (A)
                 (A) (A) (A) (A) (A) (A) (A) (A) (A) (A) (A) (A)
                 (A) (A) (A) (A) (A) (A) (A) (A) (A) (A) (A) (A)
                 (A) (A) (A) (A) (A) (A) (A) (A) (A) (A) (A) (A)
                 (A) (A) (A) (A) (A) (A) (A) (A) (A) (A) (A) (A)
                 (A) (A) (A) (A) (A) (A) (A) (A) (A) (A) (A) (A)
                 (A) (A) (A) (A) (A) (A) (A) (A) (A) (A) (A) (A)
                 (A) (A) (A) (A) (A) (A) (A) (A) (A) (A) (A) (A)
                 (A) (A) (A) (A) (A) (A) (A) (A) (A) (A) (A) (A)
                 (A) (A) (A) (A) (A) (A) (A) (A) (A) (A) (A) (A)
                 (A) (A) (A) (A) (A) (A) (A) (A) (A) (A) (A) (A)
                 (A) (A) (A) (A) (A) (A) (A) (A) (A) (A) (A) (A)
                 (A) (A) (A) (A) (A) (A) (A) (A) (A) (A) (A) (A)
                 (A) (A) (A) (A) (A) (A) (A) (A) (A) (A) (A) (A)
                 (A) (A) (A) (A) (A) (A) (A) (A) (A) (A) (A) (A)
                 (A) (A) (A) (A) (A) (A) (A) (A) (A) (A) (A) (A)
                 (A) (A) (A) (A) (A) (A) (A) (A) (A) (A) (A) (A)
                 (A) (A) (A) (A) (A) (A) (A) (A) (A) (A) (A) (A)
                 (A) (A) (A) (A) (A) (A) (A) (A) (A) (A) (A) (A)
                 (A) (A) (A) (A) (A) (A) (A) (A) (A) (A) (A) (A)
                 (A) (A) (A) (A) (A) (A) (A) (A) (A) (A) (A) (A)
                 (A) (A) (A) (A) (A) (A) (A) (A) (A) (A) (A) (A)
                 (A) (A) (A) (A) (A) (A) (A) (A) (A) (A) (A) (A)
                 (A) (A) (A) (A) (A) (A) (A) (A) (A) (A) (A) (A)
                 (A) (A) (A) (A) (A) (A) (A) (A) (A) (A) (A) (A)
                 (A) (A) (A) (A)
 The electronic state is 2-A.
 Alpha  occ. eigenvalues --  -19.63012 -14.83866 -10.59002 -10.58520 -10.55775
 Alpha  occ. eigenvalues --  -10.55725 -10.54996 -10.54897 -10.54772 -10.54690
 Alpha  occ. eigenvalues --  -10.54346 -10.52918 -10.52812 -10.52574 -10.52100
 Alpha  occ. eigenvalues --  -10.51192  -1.19801  -0.97666  -0.94936  -0.92124
 Alpha  occ. eigenvalues --   -0.86989  -0.84351  -0.83745  -0.78221  -0.77452
 Alpha  occ. eigenvalues --   -0.76877  -0.75086  -0.69322  -0.67842  -0.65282
 Alpha  occ. eigenvalues --   -0.62201  -0.59815  -0.57630  -0.55735  -0.54573
 Alpha  occ. eigenvalues --   -0.52918  -0.52366  -0.51094  -0.50569  -0.49804
 Alpha  occ. eigenvalues --   -0.48964  -0.48404  -0.46745  -0.45933  -0.45532
 Alpha  occ. eigenvalues --   -0.44495  -0.44381  -0.43917  -0.43484  -0.42358
 Alpha  occ. eigenvalues --   -0.41881  -0.40835  -0.40522  -0.40315  -0.38891
 Alpha  occ. eigenvalues --   -0.38320  -0.37746  -0.33880  -0.30984  -0.30329
 Alpha  occ. eigenvalues --   -0.26691
 Alpha virt. eigenvalues --    0.01290   0.01540   0.04917   0.07942   0.08429
 Alpha virt. eigenvalues --    0.08664   0.09718   0.10913   0.11263   0.11402
 Alpha virt. eigenvalues --    0.12585   0.12837   0.13222   0.13645   0.14046
 Alpha virt. eigenvalues --    0.14742   0.15323   0.15776   0.15912   0.16596
 Alpha virt. eigenvalues --    0.16829   0.17355   0.18076   0.18551   0.19073
 Alpha virt. eigenvalues --    0.19626   0.19781   0.20172   0.20331   0.20685
 Alpha virt. eigenvalues --    0.21755   0.22178   0.23085   0.23747   0.24010
 Alpha virt. eigenvalues --    0.24598   0.24964   0.25623   0.26386   0.27282
 Alpha virt. eigenvalues --    0.27803   0.27941   0.28532   0.29340   0.30221
 Alpha virt. eigenvalues --    0.30339   0.31166   0.31914   0.33013   0.34130
 Alpha virt. eigenvalues --    0.34426   0.35130   0.35825   0.36039   0.36455
 Alpha virt. eigenvalues --    0.37090   0.37664   0.38409   0.38490   0.39140
 Alpha virt. eigenvalues --    0.39566   0.40244   0.40735   0.41295   0.41519
 Alpha virt. eigenvalues --    0.42666   0.42937   0.43948   0.44331   0.44580
 Alpha virt. eigenvalues --    0.44870   0.45342   0.45743   0.46341   0.47038
 Alpha virt. eigenvalues --    0.47187   0.48141   0.48542   0.49207   0.49323
 Alpha virt. eigenvalues --    0.49784   0.50032   0.50658   0.50735   0.50928
 Alpha virt. eigenvalues --    0.51607   0.51793   0.52109   0.52514   0.52972
 Alpha virt. eigenvalues --    0.53287   0.53682   0.54177   0.54873   0.55237
 Alpha virt. eigenvalues --    0.56059   0.56383   0.57041   0.57777   0.57920
 Alpha virt. eigenvalues --    0.59599   0.60357   0.61344   0.62170   0.62804
 Alpha virt. eigenvalues --    0.63831   0.65657   0.66706   0.67299   0.69096
 Alpha virt. eigenvalues --    0.69505   0.69625   0.71063   0.71459   0.71864
 Alpha virt. eigenvalues --    0.72212   0.73140   0.75013   0.75744   0.75882
 Alpha virt. eigenvalues --    0.77122   0.77547   0.79856   0.80229   0.81709
 Alpha virt. eigenvalues --    0.81802   0.82541   0.82768   0.85089   0.85873
 Alpha virt. eigenvalues --    0.87511   0.87619   0.89284   0.89780   0.90662
 Alpha virt. eigenvalues --    0.90859   0.92235   0.93083   0.93944   0.94605
 Alpha virt. eigenvalues --    0.95192   0.96232   0.97557   0.98774   0.99296
 Alpha virt. eigenvalues --    1.00412   1.00869   1.01858   1.02595   1.04475
 Alpha virt. eigenvalues --    1.05229   1.06094   1.07182   1.08035   1.08970
 Alpha virt. eigenvalues --    1.10024   1.10612   1.12298   1.12961   1.13338
 Alpha virt. eigenvalues --    1.13436   1.14139   1.15494   1.15926   1.16690
 Alpha virt. eigenvalues --    1.18650   1.18932   1.19534   1.20208   1.21614
 Alpha virt. eigenvalues --    1.22306   1.22759   1.25422   1.25782   1.26614
 Alpha virt. eigenvalues --    1.26957   1.28209   1.29509   1.30868   1.31300
 Alpha virt. eigenvalues --    1.32631   1.33081   1.34966   1.36112   1.37444
 Alpha virt. eigenvalues --    1.38596   1.41035   1.41157   1.41513   1.43297
 Alpha virt. eigenvalues --    1.46514   1.47079   1.48509   1.49491   1.49675
 Alpha virt. eigenvalues --    1.51317   1.52086   1.52472   1.54154   1.54276
 Alpha virt. eigenvalues --    1.55462   1.57231   1.57600   1.58110   1.58603
 Alpha virt. eigenvalues --    1.60049   1.60231   1.60531   1.61616   1.62367
 Alpha virt. eigenvalues --    1.63162   1.63925   1.64333   1.64884   1.65376
 Alpha virt. eigenvalues --    1.66077   1.66372   1.67139   1.67744   1.68950
 Alpha virt. eigenvalues --    1.69162   1.69880   1.70335   1.71151   1.71487
 Alpha virt. eigenvalues --    1.72126   1.73910   1.74370   1.74786   1.75494
 Alpha virt. eigenvalues --    1.76179   1.76858   1.77784   1.78839   1.79766
 Alpha virt. eigenvalues --    1.81411   1.82827   1.83448   1.84286   1.86371
 Alpha virt. eigenvalues --    1.87514   1.88320   1.88590   1.91004   1.91791
 Alpha virt. eigenvalues --    1.92204   1.94735   1.95244   1.96063   1.96488
 Alpha virt. eigenvalues --    1.97919   1.98882   2.00841   2.01527   2.02298
 Alpha virt. eigenvalues --    2.02785   2.04354   2.05785   2.07024   2.09193
 Alpha virt. eigenvalues --    2.09756   2.10629   2.12523   2.13406   2.14954
 Alpha virt. eigenvalues --    2.15417   2.17124   2.18010   2.18224   2.18786
 Alpha virt. eigenvalues --    2.19985   2.20820   2.22250   2.23428   2.24751
 Alpha virt. eigenvalues --    2.25358   2.26542   2.27429   2.29475   2.29920
 Alpha virt. eigenvalues --    2.31652   2.32356   2.32739   2.33674   2.34628
 Alpha virt. eigenvalues --    2.34920   2.35706   2.36671   2.37324   2.38114
 Alpha virt. eigenvalues --    2.38835   2.39821   2.40253   2.41598   2.42918
 Alpha virt. eigenvalues --    2.43524   2.44478   2.45449   2.46846   2.46950
 Alpha virt. eigenvalues --    2.47798   2.49217   2.49959   2.50918   2.53021
 Alpha virt. eigenvalues --    2.53298   2.53985   2.54640   2.55439   2.56729
 Alpha virt. eigenvalues --    2.57114   2.58068   2.58507   2.59083   2.60016
 Alpha virt. eigenvalues --    2.60372   2.60632   2.61348   2.62598   2.62899
 Alpha virt. eigenvalues --    2.63996   2.64393   2.64730   2.65755   2.66501
[...]
 0,-0.00002073,0.00001377,0.00004210,-0.00001355,0.01041903,0.00018990,
 0.00688263,0.00068998,-0.00246094,0.00231652,-0.00038264,-0.00013712,0
 .00094475,-0.00352447,-0.00390030,0.00130560,-0.01296343,0.00095868,-0
 .02237924,-0.17771039,-0.00162842,-0.14270499,0.00032490,-0.00054390,0
 .00021240,0.00045952,-0.00007012,0.00061929,-0.00008857,0.00032513,0.0
 0001428,-0.00066581,0.00006246,-0.00103295,0.00060381,0.00138229,0.000
 63744,0.18567494,0.00050751,-0.00026240,0.00025349,-0.00049664,-0.0000
 9178,0.00007234,-0.00006502,0.00014264,0.00002028,0.00130512,-0.002514
 14,-0.00122259,-0.00002481,-0.00007377,-0.00002028,0.00010860,0.000125
 01,-0.00002783,-0.00081758,0.00025528,0.00057803,0.00002517,-0.0000079
 8,-0.00000953,0.00000406,0.00002270,0.00000603,-0.00003861,-0.00000773
 ,0.00001426,-0.00012227,-0.00003286,0.00012344,-0.00020862,0.00004484,
 -0.00017143,0.00020224,-0.00012581,0.00004608,0.00005949,-0.00001936,-
 0.00013844,-0.00000745,-0.00023120,-0.00018065,0.00023660,0.00004699,-
 0.00010422,-0.00000596,0.00002978,0.00001867,-0.00000505,0.00002507,-0
 .00009202,-0.00001667,-0.00002775,0.00000918,0.00006803,0.00000752,-0.
 00005482,-0.00002348,0.00000885,0.00001948,-0.00006648,-0.00004161,-0.
 00000289,0.00797684,0.00409868,0.00853615,-0.00257292,0.00507460,0.003
 31926,-0.00013134,-0.00093282,0.00011857,-0.00397133,0.00585906,0.0021
 7917,-0.00728227,0.00432942,-0.00849812,-0.00172451,-0.04382791,0.0084
 8062,0.00004314,-0.00042127,0.00014598,0.00030044,0.00017716,0.0005367
 3,0.00037035,-0.00095833,-0.00030003,-0.00033527,0.00002847,-0.0004110
 1,0.00160556,-0.00351692,-0.00113503,0.00531020,0.03348810,-0.00115222
 ,-0.00023223,0.00093685,0.00055825,-0.00044822,-0.00097673,0.00031478,
 -0.00004746,-0.00036499,-0.00114260,-0.00078537,-0.00026519,0.00002672
 ,0.00003578,0.00006861,0.00001905,0.00008437,0.00015177,0.00008259,0.0
 0026703,-0.00015638,-0.00002763,0.00002648,0.00000871,0.00002196,-0.00
 001195,0.00000060,-0.00000600,-0.00001827,-0.00000686,-0.00007256,0.00
 005468,0.00006027,-0.00006184,0.00000647,-0.00019774,0.00013112,-0.000
 10622,0.00001489,-0.00006498,-0.00003937,-0.00004343,0.00000039,0.0000
 0351,0.00001883,-0.00001747,-0.00007129,0.00010594,0.00002836,-0.00003
 953,-0.00002650,-0.00002594,-0.00001288,0.00002186,0.00003563,-0.00000
 643,0.00002508,-0.00001479,0.00001172,0.00000176,0.00004572,0.00003429
 ,0.00001940,0.00002176,-0.00003690,-0.00000132,-0.01935976,-0.00004534
 ,-0.01664893,0.00221839,0.00375146,-0.00330534,0.00099750,0.00009214,-
 0.00010170,0.00107874,0.00217560,0.00173405,0.00492299,0.00048786,0.00
 815440,-0.14066948,0.00893107,-0.22185579,0.00015006,-0.00035455,-0.00
 003453,-0.00095148,-0.00001034,-0.00091794,-0.00000036,-0.00033966,-0.
 00006258,0.00036320,0.00005229,0.00026895,0.00002567,-0.00139747,0.000
 29060,0.15282240,-0.01195588,0.23277002,0.00062012,0.00198639,0.001769
 15,0.00101933,-0.00121084,0.00924814,-0.06644884,0.01197696,-0.0688674
 8,-0.00011869,0.00115994,0.00046516,-0.01059978,0.00525809,-0.03214133
 ,0.00390654,-0.00379671,0.01689130,-0.00003889,-0.00009221,0.00023094,
 0.00121692,0.00022504,0.00055958,-0.00636524,0.00089710,0.00012866,0.0
 0129753,-0.00062499,0.00034122,0.00042453,0.00044699,-0.00060509,0.000
 69305,0.00079326,-0.00000297,-0.00100989,-0.00299257,0.00141379,0.0000
 0133,-0.00004444,-0.00003256,0.00005462,0.00000329,-0.00011915,-0.0000
 7369,0.00111620,0.00058950,-0.00001488,0.00001157,0.00000689,0.0000055
 2,-0.00000083,0.00000395,0.00000019,-0.00000842,0.00000593,-0.00002481
 ,-0.00002801,0.00004540,-0.00003279,0.00000638,0.00001753,-0.00002370,
 0.00000812,0.00003142,0.00017328,-0.00003006,0.00002852,0.00008580,-0.
 00015007,-0.00008798,-0.00011791,-0.00008242,-0.00000740,-0.00000423,0
 .00003053,-0.00008390,0.00009395,0.00004178,0.00002196,-0.00007726,-0.
 00006593,0.00013676,0.00000334,0.00002359,0.00000051,0.00001654,0.0000
 8634,-0.00007025,-0.00000007,0.00000501,0.00000263,0.00000046,0.000007
 42,-0.00000737,0.00000701,0.00000056,-0.00000671,0.00001927,-0.0000132
 7,-0.00002819,0.07531226,0.00197821,-0.00521010,-0.00549769,-0.0089057
 6,0.00243166,-0.02941535,0.01477791,-0.05743076,0.04900538,0.00039692,
 -0.00044037,-0.00133348,0.00108695,-0.00037486,0.00405666,0.00570433,-
 0.00488382,0.02698426,-0.00009037,0.00014409,-0.00012369,-0.00003479,0
 .00002126,0.00016612,0.00104080,0.00049799,-0.00033989,0.00004013,0.00
 025778,-0.00058600,0.00062469,0.00056735,-0.00064102,0.00004048,0.0010
 3759,-0.00077420,-0.00289144,-0.00424646,0.00156855,0.00003360,0.00004
 973,0.00001525,-0.00000607,0.00002560,-0.00011839,0.00113690,-0.001953
 36,-0.00047631,-0.00000210,-0.00000016,0.00000629,0.00000411,-0.000014
 01,0.00003194,-0.00001135,0.00001398,-0.00000427,-0.00003157,-0.000001
 86,0.00009447,0.00005796,0.00003726,0.00000434,0.00000138,-0.00000733,
 0.00004597,0.00009739,-0.00007735,0.00032916,0.00003524,0.00001269,-0.
 00006163,-0.00001215,0.00000321,0.00002269,0.00001126,0.00000473,0.000
 00867,0.00000310,-0.00000373,0.00005094,-0.00007026,0.00004115,-0.0000
 6855,-0.00001520,0.00002960,-0.00006388,0.00000607,0.00000754,0.000028
 71,-0.00000465,0.00000529,-0.00000163,0.00000352,-0.00000430,0.0000033
 9,0.00000712,-0.00001448,-0.00001166,-0.00006942,-0.00006088,0.0000098
 0,-0.01492504,0.06948035,0.00198315,-0.00447959,-0.00212945,-0.0066513
 3,0.00324415,-0.02083450,-0.06296998,0.03717602,-0.28513428,-0.0007782
 4,0.00236167,-0.00097616,-0.00060011,0.00046175,0.00088030,-0.00212628
 ,0.00315266,-0.00973936,-0.00031640,-0.00030092,0.00072788,-0.00055056
 ,0.00022848,0.00023512,0.00051472,-0.00019022,0.00121393,-0.00042924,-
 0.00021739,0.00027662,0.00001922,0.00040813,0.00025045,0.00022694,-0.0
 0021603,0.00035789,0.00100677,0.00150879,0.00064635,0.00002374,-0.0000
 8669,-0.00002206,-0.00006241,0.00000431,-0.00011816,-0.00007713,-0.000
 06715,0.00174257,0.00000553,-0.00000587,0.00000028,-0.00000589,-0.0000
 2942,0.00003740,0.00001094,0.00001588,0.00002423,-0.00002794,-0.000069
 72,0.00001649,0.00008004,0.00004899,0.00002578,0.00004460,-0.00000441,
 0.00005068,0.00049330,-0.00015532,0.00013066,0.00007580,0.00000086,-0.
 00006007,0.00007590,0.00006326,0.00003470,0.00000790,-0.00001647,0.000
 05348,-0.00005824,-0.00005692,0.00007762,-0.00006210,-0.00002880,-0.00
 019810,0.00006291,0.00030015,-0.00009069,0.00008459,-0.00006585,0.0000
 3058,0.00000260,-0.00000321,-0.00000181,-0.00000040,-0.00000444,0.0000
 1192,-0.00002641,0.00000045,0.00001182,-0.00009308,0.00001322,0.000070
 17,0.07011301,-0.04303016,0.31215258,-0.00048224,0.00090346,0.00031142
 ,-0.00000316,-0.00019584,-0.00040546,-0.00002111,-0.00004529,0.0000222
 4,-0.00070449,-0.00021765,0.00203349,0.00001090,0.00004126,-0.00000570
 ,-0.00003124,0.00000225,-0.00000056,0.00043620,0.00994682,0.00293797,-
 0.00001412,0.00000117,0.00000325,0.00000354,-0.00000315,0.00000205,0.0
 0000050,0.00000035,0.00000913,0.00001541,0.00001260,-0.00000198,0.0000
 0839,0.00001144,0.00001218,-0.00000054,-0.00000591,-0.00000311,-0.0001
 7419,-0.00026320,-0.00041312,0.00056401,0.00099858,0.00025165,0.000182
 81,0.00057904,0.00014054,-0.00006096,-0.00017199,-0.00002783,-0.000130
 90,0.00014753,0.00000688,0.00026124,-0.00000933,-0.00035647,0.00005333
 ,-0.00006107,-0.00026473,-0.00008462,0.00013231,-0.00014806,-0.0000498
 8,-0.00016789,0.00042479,-0.00009384,-0.00041949,-0.00024083,0.0003794
 0,0.00004559,0.00017628,-0.00026386,-0.00006991,0.00007552,0.00000434,
 0.00010317,-0.00023247,0.00038878,-0.00004519,0.00001026,-0.00017091,-
 0.00037377,-0.00013159,-0.05706763,-0.05239938,-0.01204819,-0.00001008
 ,0.00001446,-0.00004099,-0.00000062,-0.00000770,-0.00000467,-0.0000184
 7,0.00000429,-0.00000836,0.00000231,0.00000732,0.00000432,-0.00022696,
 0.00006876,-0.00010008,0.00000011,-0.00000104,0.00000566,0.05874252,0.
 00064103,-0.00089454,-0.00032330,0.00009482,0.00008275,0.00022306,-0.0
 0005641,0.00010070,0.00011610,0.00041689,0.00151727,-0.00070959,-0.000
 03181,-0.00007776,-0.00001038,0.00004711,-0.00003365,-0.00003645,-0.00
 147116,-0.00844457,-0.00163050,0.00003526,-0.00001463,-0.00000910,-0.0
 0001022,0.00001024,0.00000424,0.00000479,0.00001709,-0.00001345,-0.000
 00380,-0.00004058,-0.00000387,0.00000356,0.00002010,0.00000373,-0.0000
 0471,0.00002003,0.00000629,-0.00000093,0.00049681,0.00112605,-0.000500
 02,0.00026035,0.00079428,0.00000897,-0.00037856,-0.00028752,0.00010543
 ,-0.00005468,-0.00004906,0.00013675,0.00037033,0.00001064,-0.00024427,
 0.00062241,-0.00011890,0.00008003,0.00039812,0.00010824,0.00003275,-0.
 00020088,-0.00010737,0.00052709,0.00044417,-0.00015363,0.00041356,0.00
 028884,0.00011311,-0.00011565,0.00002808,0.00004181,-0.00002913,0.0000
 0877,-0.00002656,-0.00006224,0.00000667,-0.00000245,0.00004793,0.00002
 083,-0.00010294,0.00004209,-0.00018069,0.00016176,-0.05211450,-0.29112
 161,-0.05042672,0.00000708,-0.00001820,-0.00002184,-0.00001934,-0.0000
 1033,-0.00001130,-0.00002269,-0.00001022,-0.00001231,-0.00001083,-0.00
 001760,0.00001206,0.00000642,0.00017488,-0.00013751,-0.00000748,-0.000
 00248,-0.00000657,0.05739342,0.31600188,-0.00027699,0.00070964,0.00080
 910,-0.00047398,0.00011074,-0.00070615,0.00011023,-0.00006861,0.000084
 50,0.00185570,0.00033991,-0.00603155,-0.00001375,-0.00004852,0.0000421
 4,0.00002368,-0.00000254,0.00003186,-0.00635864,-0.03042762,-0.0087363
 7,0.00001479,0.00000165,-0.00000013,0.00002734,-0.00000550,0.00000690,
 0.00000389,0.00000337,-0.00000936,-0.00000344,-0.00000688,-0.00000028,
 0.00000088,0.00000625,-0.00000851,-0.00000476,-0.00001969,0.00000890,-
 0.00004649,-0.00157771,0.00124751,-0.00113267,-0.00062677,0.00103055,-
 0.00009341,-0.00179872,-0.00052216,-0.00005473,0.00005014,-0.00006798,
 0.00013223,0.00028324,0.00042263,-0.00007728,0.00073212,-0.00048924,-0
 .00028536,0.00028867,0.00018068,0.00008967,0.00010215,0.00003990,0.000
 53170,0.00044659,-0.00006765,0.00073659,0.00047127,0.00002550,-0.00023
 463,-0.00000833,0.00001652,0.00009348,0.00006849,-0.00002386,-0.000001
 48,-0.00006878,0.00009398,-0.00009479,-0.00002832,0.00010481,-0.000091
 84,0.00037832,-0.00021389,-0.01096529,-0.04803834,-0.05535035,0.000039
 80,-0.00003846,0.00001533,-0.00001818,-0.00000361,-0.00000112,0.000011
 41,-0.00000856,0.00001250,-0.00002444,-0.00000761,0.00000436,0.0000578
 8,-0.00015108,0.00011145,0.00001425,0.00002886,0.00013462,0.00985680,0
 .05612036,0.06309925,-0.00165711,0.00232445,0.00054281,0.00010671,-0.0
 0002736,0.00018438,-0.00006350,0.00013633,0.00005041,0.00052100,0.0002
 9545,-0.00058313,-0.00000073,-0.00001205,-0.00000951,0.00002821,-0.000
 01968,-0.00003487,0.00374128,-0.00730735,0.00589448,0.00000308,-0.0000
 1237,-0.00000517,0.00000106,0.00001506,0.00000137,-0.00001393,-0.00000
 034,0.00001494,-0.00001196,-0.00001781,0.00000806,-0.00000741,-0.00000
 911,-0.00000922,0.00000901,0.00000056,-0.00000333,-0.00030077,0.000160
 36,0.00184551,0.00122337,-0.00067698,0.00025224,-0.00006342,-0.0000648
 9,-0.00001781,0.00031661,0.00001051,0.00023854,0.00071204,-0.00003357,
 0.00053495,-0.00017625,0.00020254,0.00001293,0.00002128,0.00003277,-0.
 00019675,-0.00025821,0.00018611,0.00004354,-0.00001969,-0.00001470,-0.
 00001581,-0.00002706,0.00006668,-0.00003789,0.00004230,-0.00007257,0.0
 0009956,0.00003903,-0.00000557,0.00008699,0.00000770,-0.00003177,-0.00
 003568,0.00009920,0.00003641,0.00016321,-0.00027904,0.00031150,-0.0003
 4016,-0.11415150,0.07726529,-0.08966566,0.00001300,-0.00000248,0.00004
 023,-0.00000631,0.00000189,0.00000926,0.00002332,-0.00000312,0.0000157
 1,-0.00003224,-0.00000112,0.00000109,0.00003124,-0.00054131,0.00000124
 ,0.00001771,-0.00002693,-0.00002025,0.00368293,-0.00489519,0.00663436,
 0.11981215,0.00211683,-0.00390957,-0.00053988,-0.00025392,-0.00008847,
 -0.00036843,0.00027033,-0.00023727,-0.00015143,-0.00070656,0.00073086,
 0.00024703,0.00004578,0.00006757,0.00003329,-0.00009501,0.00006195,0.0
 0008493,-0.00460892,0.00446710,-0.00551840,-0.00004194,0.00002014,0.00
 000840,0.00001875,-0.00000969,-0.00000637,0.00000031,-0.00001365,0.000
 00882,0.00002250,0.00005670,-0.00000254,0.00000592,-0.00000962,-0.0000
 0117,0.00000530,-0.00003092,0.00000114,0.00039555,-0.00002866,-0.00149
 389,-0.00019880,-0.00020943,0.00013645,0.00008497,0.00002531,0.0001342
 2,0.00022280,-0.00014136,0.00006243,0.00003841,0.00068532,-0.00045918,
 0.00001098,0.00045180,-0.00013164,-0.00008688,0.00001785,-0.00012490,-
 0.00004684,0.00025855,0.00024542,0.00007228,-0.00010709,0.00012800,0.0
 0008711,-0.00003935,0.00022767,-0.00000758,-0.00001434,-0.00006493,0.0
 0007725,0.00004310,0.00001375,0.00005323,-0.00000606,0.00004733,-0.000
 03155,0.00001604,0.00009111,-0.00000518,0.00006986,-0.00013626,0.07743
 295,-0.14029623,0.10874403,-0.00000123,0.00000931,0.00002101,0.0000116
 4,0.00000327,0.00000243,0.00001957,-0.00000663,0.00000904,0.00000017,0
 .00002414,-0.00000622,-0.00037640,-0.00040872,-0.00004565,-0.00002661,
 0.00007757,0.00006941,0.01492003,-0.01604581,0.01949401,-0.08613099,0.
 15105797,-0.00053873,0.00191436,0.00147260,-0.00035908,-0.00086993,-0.
 00166395,0.00013469,-0.00018942,0.00002604,-0.00029510,0.00074698,0.00
 066627,0.00002252,0.00005945,0.00003955,-0.00005702,0.00003378,0.00007
 351,-0.01543852,0.01856710,-0.01926436,-0.00002473,0.00002344,0.000015
 22,0.00003276,-0.00002787,0.00000277,0.00000605,-0.00001233,-0.0000039
 8,0.00001445,0.00004343,-0.00000126,0.00000957,-0.00000083,0.00000168,
 -0.00000642,-0.00004063,0.00000267,0.00293277,-0.00228147,-0.00546013,
 -0.00141966,0.00019198,0.00104963,0.00009439,0.00020253,0.00005790,0.0
 0000134,-0.00016181,0.00014895,-0.00096473,0.00111350,-0.00145163,0.00
 019442,-0.00000276,0.00019223,-0.00001443,-0.00028551,0.00023604,0.000
 85536,-0.00005802,0.00014748,0.00006277,-0.00008556,-0.00005310,-0.000
 00869,-0.00037017,-0.00007419,0.00007685,0.00000760,-0.00005993,0.0000
 3883,0.00001861,0.00005342,0.00003586,-0.00000960,0.00000607,-0.000001
 86,-0.00004106,0.00012232,-0.00007099,0.00006259,-0.00021991,-0.086635
 69,0.10471725,-0.16543940,0.00001348,0.00003602,0.00005556,0.00001011,
 0.00000823,0.00000287,0.00001130,0.00000293,0.00001625,0.00000267,0.00
 001132,-0.00000030,-0.00022311,-0.00026646,0.00014843,-0.00000377,0.00
 005643,0.00010549,0.00467870,-0.00441460,0.00514187,0.09481981,-0.1154
 2728,0.18126747,0.00006281,0.00061033,0.00024718,0.00005835,-0.0000183
 9,-0.00022060,-0.00006181,-0.00010419,-0.00000476,-0.00058386,-0.00049
 990,-0.00003012,-0.00001091,0.00001446,0.00002643,-0.00003920,-0.00000
 429,0.00001067,-0.00986494,-0.00108913,0.00048330,-0.00000274,0.000019
 98,0.00000573,0.00000803,-0.00001417,-0.00000157,0.00003210,-0.0000021
 6,-0.00001988,0.00002262,0.00001362,-0.00000270,0.00003002,0.00002373,
 0.00001122,-0.00000423,-0.00000631,-0.00000198,0.00062823,0.00012187,-
 0.00100639,0.00075802,0.00092392,0.00250720,0.00002652,0.00007377,0.00
 005213,0.00047976,-0.00026821,0.00030062,0.00029392,0.00015141,0.00003
 493,-0.00008847,0.00002396,0.00018082,-0.00059708,-0.00024336,0.000248
 57,0.00033609,-0.00007881,-0.00010605,0.00015800,-0.00002819,-0.000162
 37,-0.00008540,-0.00078012,-0.00086546,0.00076031,0.00015453,0.0003714
 6,-0.00055374,-0.00017325,0.00019288,-0.00011724,0.00024387,-0.0004959
 6,0.00065783,-0.00011861,0.00008515,-0.00027217,-0.00169686,-0.0002392
 1,-0.30833650,-0.03514879,0.02534704,-0.00001256,0.00002788,-0.0000345
 5,0.00000220,-0.00000616,0.00000220,-0.00002446,0.00001020,-0.00001479
 ,0.00002080,0.00002369,0.00000776,-0.00029344,0.00027874,-0.00017112,-
 0.00001873,0.00001009,0.00001866,-0.00512692,-0.00044462,0.00001746,-0
 .01338310,-0.00329425,0.00201384,0.33514187,-0.00018938,-0.00055865,-0
 .00021312,0.00002321,-0.00001632,0.00020454,0.00005060,0.00004631,-0.0
 0005779,0.00052278,0.00015090,0.00040289,-0.00000334,-0.00000896,-0.00
 001051,0.00002432,0.00001348,0.00000329,0.00745832,-0.00013770,0.00016
 058,0.00000013,-0.00000235,-0.00000165,-0.00000557,0.00000762,0.000000
 70,-0.00001197,-0.00000257,0.00000597,-0.00002028,0.00000038,0.0000060
 7,-0.00001868,-0.00002406,-0.00001690,0.00001028,-0.00000086,-0.000000
 79,-0.00038171,0.00002396,0.00031013,0.00011058,-0.00029324,-0.0009972
 9,-0.00011987,0.00012002,0.00005232,-0.00004241,0.00028801,0.00030932,
 0.00011870,-0.00014697,-0.00007774,-0.00021528,-0.00013769,-0.00003889
 ,0.00031406,0.00059095,-0.00021815,-0.00026414,-0.00003566,-0.00008454
 ,0.00027835,0.00036251,-0.00008513,0.00011233,-0.00080198,-0.00096595,
 0.00008855,0.00000121,0.00010024,-0.00003963,-0.00007183,0.00011005,-0
 .00004850,0.00004032,-0.00012539,0.00001698,-0.00009563,0.00017408,-0.
 00076857,-0.00184102,-0.00046973,-0.03652573,-0.05099164,0.00423612,0.
 00001777,0.00000540,0.00007255,0.00000826,0.00000530,0.00002026,0.0000
 2915,0.00001929,0.00002063,0.00000161,0.00001324,-0.00000336,0.0001747
 1,-0.00037580,0.00011800,0.00001536,-0.00002008,-0.00002302,-0.0308760
 4,-0.00334354,0.00329991,0.01886130,0.00345846,-0.00327221,0.04129374,
 0.05375921,0.00003043,0.00028266,0.00011113,-0.00015106,-0.00005025,-0
 .00002116,0.00005499,0.00001443,0.00005105,0.00024704,0.00060473,0.001
 07479,0.00002991,0.00002729,-0.00001671,-0.00000153,0.00000783,0.00001
 937,0.03061493,0.00608446,-0.00286104,-0.00000994,-0.00000824,0.000005
 10,-0.00000070,-0.00001006,-0.00000213,-0.00002630,0.00000133,0.000011
 05,-0.00000775,0.00000551,0.00000006,-0.00001187,-0.00001311,-0.000001
 13,-0.00000276,-0.00000736,-0.00000119,0.00137704,-0.00028728,0.001589
 28,0.00075278,-0.00169706,-0.00606043,-0.00005311,0.00023986,0.0000692
 9,-0.00060083,0.00012394,-0.00051047,-0.00023123,-0.00016568,0.0003331
 2,-0.00006943,0.00009162,-0.00002820,0.00206774,0.00029328,-0.00030578
 ,-0.00001240,-0.00014707,0.00000097,-0.00018540,0.00012450,-0.00003559
 ,-0.00016128,-0.00079443,-0.00014748,-0.00018494,0.00009755,-0.0000917
 9,-0.00003312,0.00002794,-0.00006208,0.00003038,-0.00001421,0.00004044
 ,-0.00004091,-0.00007557,-0.00001062,-0.00014045,-0.00053833,0.0001852
 7,0.02266851,0.00395557,-0.04997482,0.00001118,-0.00000863,-0.00000919
 ,0.00001097,-0.00001231,-0.00000456,-0.00000025,0.00001757,-0.00000038
 ,0.00002049,0.00005130,-0.00001374,-0.00015205,0.00025133,-0.00001669,
 -0.00000201,0.00002992,0.00000505,-0.00652895,-0.00022580,-0.00043629,
 -0.02052038,-0.00533175,0.00263988,-0.02878773,-0.00294549,0.05447561\
 \0.00000068,0.00000123,0.00000230,0.00000085,-0.00000889,-0.00000854,-
 0.00000393,0.00000871,0.00000576,0.00000234,0.00000715,0.00000415,0.00
 000278,-0.00000146,0.00000051,0.00000046,-0.00000146,0.00000177,0.0000
 0146,-0.00000756,-0.00000240,-0.00000134,0.00000019,-0.00000025,0.0000
 0003,0.00000047,-0.00000048,-0.00000083,0.00000003,-0.00000068,0.,0.00
 000055,0.00000046,-0.00000004,0.00000036,0.00000067,0.00000002,0.00000
 019,0.00000035,-0.00000250,0.00000248,-0.00000291,0.00000246,0.0000012
 2,-0.00000090,-0.00000111,0.00000009,-0.00000146,0.00000007,-0.0000007
 1,-0.00000002,-0.00000043,-0.00000087,-0.00000046,0.,-0.00000092,-0.00
 000114,-0.00000051,-0.00000036,-0.00000082,-0.00000027,0.00000013,-0.0
 0000101,-0.00000057,-0.00000040,-0.00000156,-0.00000235,0.00000045,-0.
 00000870,0.00000536,0.00000024,0.00000340,-0.00000495,-0.00000299,0.00
 000444,-0.00000119,0.00000147,-0.00000480,0.00000676,0.00000143,0.0000
 0344,-0.00000469,-0.00000212,0.00000667,0.00000040,0.00000215,0.000002
 80,-0.00000086,-0.00000023,0.00000036,-0.00000028,-0.00000049,0.000001
 12,0.00000016,-0.00000003,0.00000204,-0.00000028,0.00000055,0.00000101
 ,0.00000099,0.00000087,-0.00000036,0.00000014,-0.00000191,-0.00000178,
 0.00000029,-0.00000025,-0.00000200,0.00000045,0.00000043,-0.00000069,0
 .00000044,0.00000024,-0.00000027\\\@
 The archive entry for this job was punched.


 Other things may change us, but we start and end with family.
 -- Anthony Brandt
 Job cpu time:       2 days 13 hours 55 minutes 54.2 seconds.
 Elapsed time:       0 days  3 hours  5 minutes 48.9 seconds.
 File lengths (MBytes):  RWF=   2284 Int=      0 D2E=      0 Chk=     45 Scr=      1
 Normal termination of Gaussian 16 at Tue Jan  7 22:20:51 2025.
