 Entering Gaussian System, Link 0=g16
 Input=gjfs/data_set_3-dormant-Mix_9_St2_opt.gjf
 Output=gjfs/data_set_3-dormant-Mix_9_St2_opt.log
 Initial command:
 /usr/local/intel/g16/l1.exe "/scr/Gau-1240162.inp" -scrdir="/scr/"
 Entering Link 1 = /usr/local/intel/g16/l1.exe PID=   1240164.
  
 Copyright (c) 1988-2019, Gaussian, Inc.  All Rights Reserved.
  
 This is part of the Gaussian(R) 16 program.  It is based on
 the Gaussian(R) 09 system (copyright 2009, Gaussian, Inc.),
 the Gaussian(R) 03 system (copyright 2003, Gaussian, Inc.),
 the Gaussian(R) 98 system (copyright 1998, Gaussian, Inc.),
 the Gaussian(R) 94 system (copyright 1995, Gaussian, Inc.),
 the Gaussian 92(TM) system (copyright 1992, Gaussian, Inc.),
 the Gaussian 90(TM) system (copyright 1990, Gaussian, Inc.),
 the Gaussian 88(TM) system (copyright 1988, Gaussian, Inc.),
 the Gaussian 86(TM) system (copyright 1986, Carnegie Mellon
 University), and the Gaussian 82(TM) system (copyright 1983,
 Carnegie Mellon University). Gaussian is a federally registered
 trademark of Gaussian, Inc.
  
 This software contains proprietary and confidential information,
 including trade secrets, belonging to Gaussian, Inc.
  
 This software is provided under written license and may be
 used, copied, transmitted, or stored only in accord with that
 written license.
  
 The following legend is applicable only to US Government
 contracts under FAR:
  
                    RESTRICTED RIGHTS LEGEND
  
 Use, reproduction and disclosure by the US Government is
 subject to restrictions as set forth in subparagraphs (a)
 and (c) of the Commercial Computer Software - Restricted
 Rights clause in FAR 52.227-19.
  
 Gaussian, Inc.
 340 Quinnipiac St., Bldg. 40, Wallingford CT 06492
  
  
 ---------------------------------------------------------------
 Warning -- This program may not be used in any manner that
 competes with the business of Gaussian, Inc. or will provide
 assistance to any competitor of Gaussian, Inc.  The licensee
 of this program is prohibited from giving any competitor of
 Gaussian, Inc. access to this program.  By using this program,
 the user acknowledges that Gaussian, Inc. is engaged in the
 business of creating and licensing software in the field of
 computational chemistry and represents and warrants to the
 licensee that it is not a competitor of Gaussian, Inc. and that
 it will not use this program in any manner prohibited above.
 ---------------------------------------------------------------
  

 Cite this work as:
 Gaussian 16, Revision C.01,
 M. J. Frisch, G. W. Trucks, H. B. Schlegel, G. E. Scuseria, 
 M. A. Robb, J. R. Cheeseman, G. Scalmani, V. Barone, 
 G. A. Petersson, H. Nakatsuji, X. Li, M. Caricato, A. V. Marenich, 
 J. Bloino, B. G. Janesko, R. Gomperts, B. Mennucci, H. P. Hratchian, 
 J. V. Ortiz, A. F. Izmaylov, J. L. Sonnenberg, D. Williams-Young, 
 F. Ding, F. Lipparini, F. Egidi, J. Goings, B. Peng, A. Petrone, 
 T. Henderson, D. Ranasinghe, V. G. Zakrzewski, J. Gao, N. Rega, 
 G. Zheng, W. Liang, M. Hada, M. Ehara, K. Toyota, R. Fukuda, 
 J. Hasegawa, M. Ishida, T. Nakajima, Y. Honda, O. Kitao, H. Nakai, 
 T. Vreven, K. Throssell, J. A. Montgomery, Jr., J. E. Peralta, 
 F. Ogliaro, M. J. Bearpark, J. J. Heyd, E. N. Brothers, K. N. Kudin, 
 V. N. Staroverov, T. A. Keith, R. Kobayashi, J. Normand, 
 K. Raghavachari, A. P. Rendell, J. C. Burant, S. S. Iyengar, 
 J. Tomasi, M. Cossi, J. M. Millam, M. Klene, C. Adamo, R. Cammi, 
 J. W. Ochterski, R. L. Martin, K. Morokuma, O. Farkas, 
 J. B. Foresman, and D. J. Fox, Gaussian, Inc., Wallingford CT, 2019.
 
 ******************************************
 Gaussian 16:  ES64L-G16RevC.01  3-Jul-2019
                11-Jan-2025 
 ******************************************
 %nprocshared=20
 Will use up to   20 processors via shared memory.
 %mem=30GB
 %chk=outputs/data_set_3-dormant-Mix_9_St2_opt.chk
 ----------------------------------
 #p M062X/DEF2TZVP opt freq pop=NBO
 ----------------------------------
 1/18=20,19=15,26=3,38=1/1,3;
 2/9=110,12=2,17=6,18=5,40=1/2;
 3/5=44,7=101,11=2,25=1,30=1,71=1,74=-55/1,2,3;
 4//1;
 5/5=2,38=5/2;
 6/7=2,8=2,9=2,10=2,28=1,40=1/1,7;
 7//1,2,3,16;
 1/18=20,19=15,26=3/3(2);
 2/9=110/2;
 99//99;
 2/9=110/2;
 3/5=44,7=101,11=2,25=1,30=1,71=1,74=-55/1,2,3;
 4/5=5,16=3,69=1/1;
 5/5=2,38=5/2;
 7//1,2,3,16;
 1/18=20,19=15,26=3/3(-5);
 2/9=110/2;
 6/7=2,8=2,9=2,10=2,19=2,28=1,40=1/1,7;
 99/9=1/99;
 Leave Link    1 at Sat Jan 11 03:44:17 2025, MaxMem=  4026531840 cpu:               1.0 elap:               0.1
 (Enter /usr/local/intel/g16/l101.exe)
 --------------------------------
 data_set_3-dormant-Mix_9_St2_opt
 --------------------------------
 Symbolic Z-matrix:
 Charge =  0 Multiplicity = 1
 C                     2.67594  -3.28942  -1.50612 
 C                     2.06487  -2.25919  -0.5326 
 C                     3.14805  -1.41488   0.12731 
 C                     3.94005  -0.5317   -0.6305 
 C                     4.90834   0.26985  -0.01686 
 C                     5.11098   0.1954    1.37126 
 C                     4.33991  -0.69158   2.13425 
 C                     3.36564  -1.48925   1.5122 
 C                     0.99849  -1.40729  -1.26269 
 C                     0.31362  -0.36544  -0.35429 
 C                     1.04141   0.96306  -0.30716 
 C                     1.2432    1.70313  -1.48473 
 C                     1.9241    2.92559  -1.44878 
 C                     2.41817   3.42012  -0.22973 
 C                     2.21671   2.68687   0.94804 
 C                     1.52637   1.46756   0.90617 
 O                    -1.05355  -0.20771  -0.89208 
 N                    -2.06463  -0.06968   0.15842 
 C                    -2.82409  -1.37251   0.2161 
 C                    -3.95475  -1.20869   1.26707 
 C                    -4.77994   0.02922   1.00142 
 C                    -3.9592    1.2959    0.95266 
 C                    -2.82144   1.20762  -0.10147 
 C                    -1.86811   2.38871   0.14768 
 C                    -3.41209  -1.8387   -1.138 
 C                    -1.8644   -2.46008   0.73827 
 C                    -3.40371   1.33023  -1.53086 
 H                     3.40135  -3.92745  -0.99141 
 H                     3.19578  -2.78654  -2.32998 
 H                     1.89534  -3.92697  -1.93754 
 H                     1.54628  -2.81523   0.26177 
 H                     3.78102  -0.44731  -1.7019 
 H                     5.49428   0.96048  -0.61438 
 H                     5.85858   0.82079   1.84819 
 H                     4.49188  -0.76117   3.20681 
 H                     2.76616  -2.17022   2.11134 
 H                     0.22344  -2.07922  -1.64909 
 H                     1.44851  -0.91461  -2.1328 
 H                     0.21888  -0.76065   0.66199 
 H                     0.85033   1.32975  -2.42621 
 H                     2.06936   3.49232  -2.36306 
 H                     2.95118   4.36499  -0.20045 
 H                     2.59866   3.05843   1.89318 
 H                     1.37818   0.8992    1.81966 
 H                    -3.49943  -1.11267   2.26101 
 H                    -4.59475  -2.09465   1.25427 
 H                    -3.50648   1.45299   1.94006 
 H                    -4.60185   2.14844   0.71926 
 H                    -1.13987   2.48637  -0.65931 
 H                    -1.32329   2.25111   1.08621 
 H                    -2.44503   3.31916   0.20462 
 H                    -3.64772  -2.90731  -1.08455 
 H                    -2.67749  -1.68339  -1.93241 
 H                    -4.33436  -1.31372  -1.39839 
 H                    -2.43203  -3.36694   0.97459 
 H                    -1.35668  -2.12052   1.64699 
 H                    -1.11595  -2.72257  -0.01425 
 H                    -4.31555   0.74383  -1.66977 
 H                    -2.65736   1.01005  -2.26233 
 H                    -3.65424   2.37821  -1.72806 
 O                    -6.00938   0.00216   0.82023 
 
 ITRead=  0  0  0  0  0  0  0  0  0  0  0  0  0  0  0  0  0  0  0  0
 ITRead=  0  0  0  0  0  0  0  0  0  0  0  0  0  0  0  0  0  0  0  0
 ITRead=  0  0  0  0  0  0  0  0  0  0  0  0  0  0  0  0  0  0  0  0
 ITRead=  0
 MicOpt= -1 -1 -1 -1 -1 -1 -1 -1 -1 -1 -1 -1 -1 -1 -1 -1 -1 -1 -1 -1
 MicOpt= -1 -1 -1 -1 -1 -1 -1 -1 -1 -1 -1 -1 -1 -1 -1 -1 -1 -1 -1 -1
 MicOpt= -1 -1 -1 -1 -1 -1 -1 -1 -1 -1 -1 -1 -1 -1 -1 -1 -1 -1 -1 -1
 MicOpt= -1
 NAtoms=     61 NQM=       61 NQMF=       0 NMMI=      0 NMMIF=      0
                NMic=       0 NMicF=      0.
                    Isotopes and Nuclear Properties:
 (Nuclear quadrupole moments (NQMom) in fm**2, nuclear magnetic moments (NMagM)
  in nuclear magnetons)

  Atom         1           2           3           4           5           6           7           8           9          10
 IAtWgt=          12          12          12          12          12          12          12          12          12          12
 AtmWgt=  12.0000000  12.0000000  12.0000000  12.0000000  12.0000000  12.0000000  12.0000000  12.0000000  12.0000000  12.0000000
 NucSpn=           0           0           0           0           0           0           0           0           0           0
 AtZEff=  -0.0000000  -0.0000000  -0.0000000  -0.0000000  -0.0000000  -0.0000000  -0.0000000  -0.0000000  -0.0000000  -0.0000000
 NQMom=    0.0000000   0.0000000   0.0000000   0.0000000   0.0000000   0.0000000   0.0000000   0.0000000   0.0000000   0.0000000
 NMagM=    0.0000000   0.0000000   0.0000000   0.0000000   0.0000000   0.0000000   0.0000000   0.0000000   0.0000000   0.0000000
 AtZNuc=   6.0000000   6.0000000   6.0000000   6.0000000   6.0000000   6.0000000   6.0000000   6.0000000   6.0000000   6.0000000

  Atom        11          12          13          14          15          16          17          18          19          20
 IAtWgt=          12          12          12          12          12          12          16          14          12          12
 AtmWgt=  12.0000000  12.0000000  12.0000000  12.0000000  12.0000000  12.0000000  15.9949146  14.0030740  12.0000000  12.0000000
 NucSpn=           0           0           0           0           0           0           0           2           0           0
 AtZEff=  -0.0000000  -0.0000000  -0.0000000  -0.0000000  -0.0000000  -0.0000000  -0.0000000  -0.0000000  -0.0000000  -0.0000000
 NQMom=    0.0000000   0.0000000   0.0000000   0.0000000   0.0000000   0.0000000   0.0000000   2.0440000   0.0000000   0.0000000
 NMagM=    0.0000000   0.0000000   0.0000000   0.0000000   0.0000000   0.0000000   0.0000000   0.4037610   0.0000000   0.0000000
 AtZNuc=   6.0000000   6.0000000   6.0000000   6.0000000   6.0000000   6.0000000   8.0000000   7.0000000   6.0000000   6.0000000

  Atom        21          22          23          24          25          26          27          28          29          30
 IAtWgt=          12          12          12          12          12          12          12           1           1           1
 AtmWgt=  12.0000000  12.0000000  12.0000000  12.0000000  12.0000000  12.0000000  12.0000000   1.0078250   1.0078250   1.0078250
 NucSpn=           0           0           0           0           0           0           0           1           1           1
 AtZEff=  -0.0000000  -0.0000000  -0.0000000  -0.0000000  -0.0000000  -0.0000000  -0.0000000  -0.0000000  -0.0000000  -0.0000000
 NQMom=    0.0000000   0.0000000   0.0000000   0.0000000   0.0000000   0.0000000   0.0000000   0.0000000   0.0000000   0.0000000
 NMagM=    0.0000000   0.0000000   0.0000000   0.0000000   0.0000000   0.0000000   0.0000000   2.7928460   2.7928460   2.7928460
 AtZNuc=   6.0000000   6.0000000   6.0000000   6.0000000   6.0000000   6.0000000   6.0000000   1.0000000   1.0000000   1.0000000

  Atom        31          32          33          34          35          36          37          38          39          40
 IAtWgt=           1           1           1           1           1           1           1           1           1           1
 AtmWgt=   1.0078250   1.0078250   1.0078250   1.0078250   1.0078250   1.0078250   1.0078250   1.0078250   1.0078250   1.0078250
 NucSpn=           1           1           1           1           1           1           1           1           1           1
 AtZEff=  -0.0000000  -0.0000000  -0.0000000  -0.0000000  -0.0000000  -0.0000000  -0.0000000  -0.0000000  -0.0000000  -0.0000000
 NQMom=    0.0000000   0.0000000   0.0000000   0.0000000   0.0000000   0.0000000   0.0000000   0.0000000   0.0000000   0.0000000
 NMagM=    2.7928460   2.7928460   2.7928460   2.7928460   2.7928460   2.7928460   2.7928460   2.7928460   2.7928460   2.7928460
 AtZNuc=   1.0000000   1.0000000   1.0000000   1.0000000   1.0000000   1.0000000   1.0000000   1.0000000   1.0000000   1.0000000

  Atom        41          42          43          44          45          46          47          48          49          50
 IAtWgt=           1           1           1           1           1           1           1           1           1           1
 AtmWgt=   1.0078250   1.0078250   1.0078250   1.0078250   1.0078250   1.0078250   1.0078250   1.0078250   1.0078250   1.0078250
 NucSpn=           1           1           1           1           1           1           1           1           1           1
 AtZEff=  -0.0000000  -0.0000000  -0.0000000  -0.0000000  -0.0000000  -0.0000000  -0.0000000  -0.0000000  -0.0000000  -0.0000000
 NQMom=    0.0000000   0.0000000   0.0000000   0.0000000   0.0000000   0.0000000   0.0000000   0.0000000   0.0000000   0.0000000
 NMagM=    2.7928460   2.7928460   2.7928460   2.7928460   2.7928460   2.7928460   2.7928460   2.7928460   2.7928460   2.7928460
 AtZNuc=   1.0000000   1.0000000   1.0000000   1.0000000   1.0000000   1.0000000   1.0000000   1.0000000   1.0000000   1.0000000

  Atom        51          52          53          54          55          56          57          58          59          60
 IAtWgt=           1           1           1           1           1           1           1           1           1           1
 AtmWgt=   1.0078250   1.0078250   1.0078250   1.0078250   1.0078250   1.0078250   1.0078250   1.0078250   1.0078250   1.0078250
 NucSpn=           1           1           1           1           1           1           1           1           1           1
 AtZEff=  -0.0000000  -0.0000000  -0.0000000  -0.0000000  -0.0000000  -0.0000000  -0.0000000  -0.0000000  -0.0000000  -0.0000000
 NQMom=    0.0000000   0.0000000   0.0000000   0.0000000   0.0000000   0.0000000   0.0000000   0.0000000   0.0000000   0.0000000
 NMagM=    2.7928460   2.7928460   2.7928460   2.7928460   2.7928460   2.7928460   2.7928460   2.7928460   2.7928460   2.7928460
 AtZNuc=   1.0000000   1.0000000   1.0000000   1.0000000   1.0000000   1.0000000   1.0000000   1.0000000   1.0000000   1.0000000

  Atom        61
 IAtWgt=          16
 AtmWgt=  15.9949146
 NucSpn=           0
 AtZEff=  -0.0000000
 NQMom=    0.0000000
 NMagM=    0.0000000
 AtZNuc=   8.0000000
 Leave Link  101 at Sat Jan 11 03:44:19 2025, MaxMem=  4026531840 cpu:              28.9 elap:               1.5
 (Enter /usr/local/intel/g16/l103.exe)

 GradGradGradGradGradGradGradGradGradGradGradGradGradGradGradGradGradGrad
 Berny optimization.
 Initialization pass.
                           ----------------------------
                           !    Initial Parameters    !
                           ! (Angstroms and Degrees)  !
 --------------------------                            --------------------------
 ! Name  Definition              Value          Derivative Info.                !
 --------------------------------------------------------------------------------
 ! R1    R(1,2)                  1.5435         estimate D2E/DX2                !
 ! R2    R(1,28)                 1.0946         estimate D2E/DX2                !
 ! R3    R(1,29)                 1.0963         estimate D2E/DX2                !
 ! R4    R(1,30)                 1.0963         estimate D2E/DX2                !
 ! R5    R(2,3)                  1.5237         estimate D2E/DX2                !
 ! R6    R(2,9)                  1.5479         estimate D2E/DX2                !
 ! R7    R(2,31)                 1.0996         estimate D2E/DX2                !
 ! R8    R(3,4)                  1.4077         estimate D2E/DX2                !
 ! R9    R(3,8)                  1.4039         estimate D2E/DX2                !
 ! R10   R(4,5)                  1.3988         estimate D2E/DX2                !
 ! R11   R(4,32)                 1.0864         estimate D2E/DX2                !
 ! R12   R(5,6)                  1.4048         estimate D2E/DX2                !
 ! R13   R(5,33)                 1.085          estimate D2E/DX2                !
 ! R14   R(6,7)                  1.4012         estimate D2E/DX2                !
 ! R15   R(6,34)                 1.0851         estimate D2E/DX2                !
 ! R16   R(7,8)                  1.4044         estimate D2E/DX2                !
 ! R17   R(7,35)                 1.0855         estimate D2E/DX2                !
 ! R18   R(8,36)                 1.0872         estimate D2E/DX2                !
 ! R19   R(9,10)                 1.5426         estimate D2E/DX2                !
 ! R20   R(9,37)                 1.0961         estimate D2E/DX2                !
 ! R21   R(9,38)                 1.0965         estimate D2E/DX2                !
 ! R22   R(10,11)                1.5155         estimate D2E/DX2                !
 ! R23   R(10,17)                1.4776         estimate D2E/DX2                !
 ! R24   R(10,39)                1.0945         estimate D2E/DX2                !
 ! R25   R(11,12)                1.4054         estimate D2E/DX2                !
 ! R26   R(11,16)                1.4007         estimate D2E/DX2                !
 ! R27   R(12,13)                1.3998         estimate D2E/DX2                !
 ! R28   R(12,40)                1.0863         estimate D2E/DX2                !
 ! R29   R(13,14)                1.4053         estimate D2E/DX2                !
 ! R30   R(13,41)                1.0854         estimate D2E/DX2                !
 ! R31   R(14,15)                1.4019         estimate D2E/DX2                !
 ! R32   R(14,42)                1.0852         estimate D2E/DX2                !
 ! R33   R(15,16)                1.4018         estimate D2E/DX2                !
 ! R34   R(15,43)                1.085          estimate D2E/DX2                !
 ! R35   R(16,44)                1.086          estimate D2E/DX2                !
 ! R36   R(17,18)                1.4645         estimate D2E/DX2                !
 ! R37   R(18,19)                1.5091         estimate D2E/DX2                !
 ! R38   R(18,23)                1.5073         estimate D2E/DX2                !
 ! R39   R(19,20)                1.5523         estimate D2E/DX2                !
 ! R40   R(19,25)                1.5481         estimate D2E/DX2                !
 ! R41   R(19,26)                1.5416         estimate D2E/DX2                !
 ! R42   R(20,21)                1.5113         estimate D2E/DX2                !
 ! R43   R(20,45)                1.0975         estimate D2E/DX2                !
 ! R44   R(20,46)                1.093          estimate D2E/DX2                !
 ! R45   R(21,22)                1.5101         estimate D2E/DX2                !
 ! R46   R(21,61)                1.243          estimate D2E/DX2                !
 ! R47   R(22,23)                1.5535         estimate D2E/DX2                !
 ! R48   R(22,47)                1.0975         estimate D2E/DX2                !
 ! R49   R(22,48)                1.0928         estimate D2E/DX2                !
 ! R50   R(23,24)                1.5381         estimate D2E/DX2                !
 ! R51   R(23,27)                1.5483         estimate D2E/DX2                !
 ! R52   R(24,49)                1.0914         estimate D2E/DX2                !
 ! R53   R(24,50)                1.0939         estimate D2E/DX2                !
 ! R54   R(24,51)                1.0963         estimate D2E/DX2                !
 ! R55   R(25,52)                1.0956         estimate D2E/DX2                !
 ! R56   R(25,53)                1.0931         estimate D2E/DX2                !
 ! R57   R(25,54)                1.0927         estimate D2E/DX2                !
 ! R58   R(26,55)                1.0957         estimate D2E/DX2                !
 ! R59   R(26,56)                1.0949         estimate D2E/DX2                !
 ! R60   R(26,57)                1.0933         estimate D2E/DX2                !
 ! R61   R(27,58)                1.093          estimate D2E/DX2                !
 ! R62   R(27,59)                1.093          estimate D2E/DX2                !
 ! R63   R(27,60)                1.0954         estimate D2E/DX2                !
 ! A1    A(2,1,28)             110.7826         estimate D2E/DX2                !
 ! A2    A(2,1,29)             110.8258         estimate D2E/DX2                !
 ! A3    A(2,1,30)             110.7605         estimate D2E/DX2                !
 ! A4    A(28,1,29)            107.8478         estimate D2E/DX2                !
 ! A5    A(28,1,30)            108.5377         estimate D2E/DX2                !
 ! A6    A(29,1,30)            107.9775         estimate D2E/DX2                !
 ! A7    A(1,2,3)              111.1969         estimate D2E/DX2                !
 ! A8    A(1,2,9)              110.0348         estimate D2E/DX2                !
 ! A9    A(1,2,31)             107.7475         estimate D2E/DX2                !
 ! A10   A(3,2,9)              112.8965         estimate D2E/DX2                !
 ! A11   A(3,2,31)             107.6135         estimate D2E/DX2                !
 ! A12   A(9,2,31)             107.1059         estimate D2E/DX2                !
 ! A13   A(2,3,4)              120.9626         estimate D2E/DX2                !
 ! A14   A(2,3,8)              120.5358         estimate D2E/DX2                !
 ! A15   A(4,3,8)              118.4964         estimate D2E/DX2                !
 ! A16   A(3,4,5)              120.8526         estimate D2E/DX2                !
 ! A17   A(3,4,32)             119.8202         estimate D2E/DX2                !
 ! A18   A(5,4,32)             119.3035         estimate D2E/DX2                !
 ! A19   A(4,5,6)              120.1961         estimate D2E/DX2                !
 ! A20   A(4,5,33)             119.7998         estimate D2E/DX2                !
 ! A21   A(6,5,33)             119.9987         estimate D2E/DX2                !
 ! A22   A(5,6,7)              119.4865         estimate D2E/DX2                !
 ! A23   A(5,6,34)             120.2074         estimate D2E/DX2                !
 ! A24   A(7,6,34)             120.3061         estimate D2E/DX2                !
 ! A25   A(6,7,8)              120.0055         estimate D2E/DX2                !
 ! A26   A(6,7,35)             120.1035         estimate D2E/DX2                !
 ! A27   A(8,7,35)             119.8906         estimate D2E/DX2                !
 ! A28   A(3,8,7)              120.9555         estimate D2E/DX2                !
 ! A29   A(3,8,36)             119.4294         estimate D2E/DX2                !
 ! A30   A(7,8,36)             119.614          estimate D2E/DX2                !
 ! A31   A(2,9,10)             113.5663         estimate D2E/DX2                !
 ! A32   A(2,9,37)             108.4225         estimate D2E/DX2                !
 ! A33   A(2,9,38)             109.8051         estimate D2E/DX2                !
 ! A34   A(10,9,37)            107.9192         estimate D2E/DX2                !
 ! A35   A(10,9,38)            110.2449         estimate D2E/DX2                !
 ! A36   A(37,9,38)            106.6125         estimate D2E/DX2                !
 ! A37   A(9,10,11)            113.3997         estimate D2E/DX2                !
 ! A38   A(9,10,17)            105.5786         estimate D2E/DX2                !
 ! A39   A(9,10,39)            109.9584         estimate D2E/DX2                !
 ! A40   A(11,10,17)           111.228          estimate D2E/DX2                !
 ! A41   A(11,10,39)           109.2205         estimate D2E/DX2                !
 ! A42   A(17,10,39)           107.2415         estimate D2E/DX2                !
 ! A43   A(10,11,12)           120.2985         estimate D2E/DX2                !
 ! A44   A(10,11,16)           120.5934         estimate D2E/DX2                !
 ! A45   A(12,11,16)           119.1075         estimate D2E/DX2                !
 ! A46   A(11,12,13)           120.5454         estimate D2E/DX2                !
 ! A47   A(11,12,40)           119.5539         estimate D2E/DX2                !
 ! A48   A(13,12,40)           119.891          estimate D2E/DX2                !
 ! A49   A(12,13,14)           120.0429         estimate D2E/DX2                !
 ! A50   A(12,13,41)           119.9637         estimate D2E/DX2                !
 ! A51   A(14,13,41)           119.9934         estimate D2E/DX2                !
 ! A52   A(13,14,15)           119.6171         estimate D2E/DX2                !
 ! A53   A(13,14,42)           120.1648         estimate D2E/DX2                !
 ! A54   A(15,14,42)           120.218          estimate D2E/DX2                !
 ! A55   A(14,15,16)           120.041          estimate D2E/DX2                !
 ! A56   A(14,15,43)           120.14           estimate D2E/DX2                !
 ! A57   A(16,15,43)           119.8182         estimate D2E/DX2                !
 ! A58   A(11,16,15)           120.6421         estimate D2E/DX2                !
 ! A59   A(11,16,44)           119.5306         estimate D2E/DX2                !
 ! A60   A(15,16,44)           119.8205         estimate D2E/DX2                !
 ! A61   A(10,17,18)           112.8164         estimate D2E/DX2                !
 ! A62   A(17,18,19)           107.0667         estimate D2E/DX2                !
 ! A63   A(17,18,23)           107.628          estimate D2E/DX2                !
 ! A64   A(19,18,23)           119.0447         estimate D2E/DX2                !
 ! A65   A(18,19,20)           107.5367         estimate D2E/DX2                !
 ! A66   A(18,19,25)           114.6882         estimate D2E/DX2                !
 ! A67   A(18,19,26)           107.981          estimate D2E/DX2                !
 ! A68   A(20,19,25)           110.323          estimate D2E/DX2                !
 ! A69   A(20,19,26)           107.3706         estimate D2E/DX2                !
 ! A70   A(25,19,26)           108.6798         estimate D2E/DX2                !
 ! A71   A(19,20,21)           111.416          estimate D2E/DX2                !
 ! A72   A(19,20,45)           108.6753         estimate D2E/DX2                !
 ! A73   A(19,20,46)           109.4518         estimate D2E/DX2                !
 ! A74   A(21,20,45)           108.3044         estimate D2E/DX2                !
 ! A75   A(21,20,46)           110.0094         estimate D2E/DX2                !
 ! A76   A(45,20,46)           108.9321         estimate D2E/DX2                !
 ! A77   A(20,21,22)           113.3273         estimate D2E/DX2                !
 ! A78   A(20,21,61)           123.2197         estimate D2E/DX2                !
 ! A79   A(22,21,61)           123.4437         estimate D2E/DX2                !
 ! A80   A(21,22,23)           111.8564         estimate D2E/DX2                !
 ! A81   A(21,22,47)           108.3724         estimate D2E/DX2                !
 ! A82   A(21,22,48)           109.9767         estimate D2E/DX2                !
 ! A83   A(23,22,47)           108.4507         estimate D2E/DX2                !
 ! A84   A(23,22,48)           109.2743         estimate D2E/DX2                !
 ! A85   A(47,22,48)           108.8473         estimate D2E/DX2                !
 ! A86   A(18,23,22)           107.3911         estimate D2E/DX2                !
 ! A87   A(18,23,24)           108.1546         estimate D2E/DX2                !
 ! A88   A(18,23,27)           114.5267         estimate D2E/DX2                !
 ! A89   A(22,23,24)           107.4799         estimate D2E/DX2                !
 ! A90   A(22,23,27)           110.2737         estimate D2E/DX2                !
 ! A91   A(24,23,27)           108.7731         estimate D2E/DX2                !
 ! A92   A(23,24,49)           111.2539         estimate D2E/DX2                !
 ! A93   A(23,24,50)           110.553          estimate D2E/DX2                !
 ! A94   A(23,24,51)           109.5096         estimate D2E/DX2                !
 ! A95   A(49,24,50)           108.26           estimate D2E/DX2                !
 ! A96   A(49,24,51)           108.2769         estimate D2E/DX2                !
 ! A97   A(50,24,51)           108.9235         estimate D2E/DX2                !
 ! A98   A(19,25,52)           109.4352         estimate D2E/DX2                !
 ! A99   A(19,25,53)           109.733          estimate D2E/DX2                !
 ! A100  A(19,25,54)           112.603          estimate D2E/DX2                !
 ! A101  A(52,25,53)           108.5765         estimate D2E/DX2                !
 ! A102  A(52,25,54)           107.3802         estimate D2E/DX2                !
 ! A103  A(53,25,54)           109.0121         estimate D2E/DX2                !
 ! A104  A(19,26,55)           109.5399         estimate D2E/DX2                !
 ! A105  A(19,26,56)           110.5489         estimate D2E/DX2                !
 ! A106  A(19,26,57)           111.2477         estimate D2E/DX2                !
 ! A107  A(55,26,56)           108.5367         estimate D2E/DX2                !
 ! A108  A(55,26,57)           107.722          estimate D2E/DX2                !
 ! A109  A(56,26,57)           109.1629         estimate D2E/DX2                !
 ! A110  A(23,27,58)           112.8668         estimate D2E/DX2                !
 ! A111  A(23,27,59)           109.7459         estimate D2E/DX2                !
 ! A112  A(23,27,60)           109.1456         estimate D2E/DX2                !
 ! A113  A(58,27,59)           109.115          estimate D2E/DX2                !
 ! A114  A(58,27,60)           107.4337         estimate D2E/DX2                !
 ! A115  A(59,27,60)           108.4179         estimate D2E/DX2                !
 ! D1    D(28,1,2,3)            56.5824         estimate D2E/DX2                !
 ! D2    D(28,1,2,9)          -177.5723         estimate D2E/DX2                !
 ! D3    D(28,1,2,31)          -61.1208         estimate D2E/DX2                !
 ! D4    D(29,1,2,3)           -63.0937         estimate D2E/DX2                !
 ! D5    D(29,1,2,9)            62.7517         estimate D2E/DX2                !
 ! D6    D(29,1,2,31)          179.2032         estimate D2E/DX2                !
 ! D7    D(30,1,2,3)           177.0821         estimate D2E/DX2                !
 ! D8    D(30,1,2,9)           -57.0726         estimate D2E/DX2                !
 ! D9    D(30,1,2,31)           59.3789         estimate D2E/DX2                !
 ! D10   D(1,2,3,4)             65.6583         estimate D2E/DX2                !
 ! D11   D(1,2,3,8)           -115.1873         estimate D2E/DX2                !
 ! D12   D(9,2,3,4)            -58.5824         estimate D2E/DX2                !
 ! D13   D(9,2,3,8)            120.572          estimate D2E/DX2                !
 ! D14   D(31,2,3,4)          -176.5574         estimate D2E/DX2                !
 ! D15   D(31,2,3,8)             2.597          estimate D2E/DX2                !
 ! D16   D(1,2,9,10)           178.8835         estimate D2E/DX2                !
 ! D17   D(1,2,9,37)            58.9434         estimate D2E/DX2                !
 ! D18   D(1,2,9,38)           -57.1758         estimate D2E/DX2                !
 ! D19   D(3,2,9,10)           -56.2411         estimate D2E/DX2                !
 ! D20   D(3,2,9,37)          -176.1812         estimate D2E/DX2                !
 ! D21   D(3,2,9,38)            67.6996         estimate D2E/DX2                !
 ! D22   D(31,2,9,10)           62.0308         estimate D2E/DX2                !
 ! D23   D(31,2,9,37)          -57.9093         estimate D2E/DX2                !
 ! D24   D(31,2,9,38)         -174.0285         estimate D2E/DX2                !
 ! D25   D(2,3,4,5)            178.1918         estimate D2E/DX2                !
 ! D26   D(2,3,4,32)            -0.0233         estimate D2E/DX2                !
 ! D27   D(8,3,4,5)             -0.9795         estimate D2E/DX2                !
 ! D28   D(8,3,4,32)          -179.1946         estimate D2E/DX2                !
 ! D29   D(2,3,8,7)           -178.4651         estimate D2E/DX2                !
 ! D30   D(2,3,8,36)             1.1499         estimate D2E/DX2                !
 ! D31   D(4,3,8,7)              0.7098         estimate D2E/DX2                !
 ! D32   D(4,3,8,36)          -179.6751         estimate D2E/DX2                !
 ! D33   D(3,4,5,6)              0.4982         estimate D2E/DX2                !
 ! D34   D(3,4,5,33)          -178.6574         estimate D2E/DX2                !
 ! D35   D(32,4,5,6)           178.7224         estimate D2E/DX2                !
 ! D36   D(32,4,5,33)           -0.4332         estimate D2E/DX2                !
 ! D37   D(4,5,6,7)              0.271          estimate D2E/DX2                !
 ! D38   D(4,5,6,34)          -179.6867         estimate D2E/DX2                !
 ! D39   D(33,5,6,7)           179.425          estimate D2E/DX2                !
 ! D40   D(33,5,6,34)           -0.5327         estimate D2E/DX2                !
 ! D41   D(5,6,7,8)             -0.5377         estimate D2E/DX2                !
 ! D42   D(5,6,7,35)           179.6662         estimate D2E/DX2                !
 ! D43   D(34,6,7,8)           179.4199         estimate D2E/DX2                !
 ! D44   D(34,6,7,35)           -0.3762         estimate D2E/DX2                !
 ! D45   D(6,7,8,3)              0.0418         estimate D2E/DX2                !
 ! D46   D(6,7,8,36)          -179.5725         estimate D2E/DX2                !
 ! D47   D(35,7,8,3)           179.8384         estimate D2E/DX2                !
 ! D48   D(35,7,8,36)            0.2241         estimate D2E/DX2                !
 ! D49   D(2,9,10,11)           88.512          estimate D2E/DX2                !
 ! D50   D(2,9,10,17)         -149.4676         estimate D2E/DX2                !
 ! D51   D(2,9,10,39)          -34.0881         estimate D2E/DX2                !
 ! D52   D(37,9,10,11)        -151.2628         estimate D2E/DX2                !
 ! D53   D(37,9,10,17)         -29.2424         estimate D2E/DX2                !
 ! D54   D(37,9,10,39)          86.1371         estimate D2E/DX2                !
 ! D55   D(38,9,10,11)         -35.1895         estimate D2E/DX2                !
 ! D56   D(38,9,10,17)          86.8309         estimate D2E/DX2                !
 ! D57   D(38,9,10,39)        -157.7896         estimate D2E/DX2                !
 ! D58   D(9,10,11,12)          59.5252         estimate D2E/DX2                !
 ! D59   D(9,10,11,16)        -120.2113         estimate D2E/DX2                !
 ! D60   D(17,10,11,12)        -59.292          estimate D2E/DX2                !
 ! D61   D(17,10,11,16)        120.9715         estimate D2E/DX2                !
 ! D62   D(39,10,11,12)       -177.4673         estimate D2E/DX2                !
 ! D63   D(39,10,11,16)          2.7962         estimate D2E/DX2                !
 ! D64   D(9,10,17,18)         140.8338         estimate D2E/DX2                !
 ! D65   D(11,10,17,18)        -95.7581         estimate D2E/DX2                !
 ! D66   D(39,10,17,18)         23.6045         estimate D2E/DX2                !
 ! D67   D(10,11,12,13)       -179.485          estimate D2E/DX2                !
 ! D68   D(10,11,12,40)          1.6512         estimate D2E/DX2                !
 ! D69   D(16,11,12,13)          0.2553         estimate D2E/DX2                !
 ! D70   D(16,11,12,40)       -178.6084         estimate D2E/DX2                !
 ! D71   D(10,11,16,15)        179.0665         estimate D2E/DX2                !
 ! D72   D(10,11,16,44)          0.0133         estimate D2E/DX2                !
 ! D73   D(12,11,16,15)         -0.6731         estimate D2E/DX2                !
 ! D74   D(12,11,16,44)       -179.7263         estimate D2E/DX2                !
 ! D75   D(11,12,13,14)          0.2975         estimate D2E/DX2                !
 ! D76   D(11,12,13,41)       -179.627          estimate D2E/DX2                !
 ! D77   D(40,12,13,14)        179.1574         estimate D2E/DX2                !
 ! D78   D(40,12,13,41)         -0.7671         estimate D2E/DX2                !
 ! D79   D(12,13,14,15)         -0.4363         estimate D2E/DX2                !
 ! D80   D(12,13,14,42)        179.6593         estimate D2E/DX2                !
 ! D81   D(41,13,14,15)        179.4882         estimate D2E/DX2                !
 ! D82   D(41,13,14,42)         -0.4163         estimate D2E/DX2                !
 ! D83   D(13,14,15,16)          0.0225         estimate D2E/DX2                !
 ! D84   D(13,14,15,43)        179.7088         estimate D2E/DX2                !
 ! D85   D(42,14,15,16)        179.9269         estimate D2E/DX2                !
 ! D86   D(42,14,15,43)         -0.3868         estimate D2E/DX2                !
 ! D87   D(14,15,16,11)          0.5375         estimate D2E/DX2                !
 ! D88   D(14,15,16,44)        179.588          estimate D2E/DX2                !
 ! D89   D(43,15,16,11)       -179.1498         estimate D2E/DX2                !
 ! D90   D(43,15,16,44)         -0.0993         estimate D2E/DX2                !
 ! D91   D(10,17,18,19)       -106.1954         estimate D2E/DX2                !
 ! D92   D(10,17,18,23)        124.7227         estimate D2E/DX2                !
 ! D93   D(17,18,19,20)       -176.6453         estimate D2E/DX2                !
 ! D94   D(17,18,19,25)        -53.542          estimate D2E/DX2                !
 ! D95   D(17,18,19,26)         67.7766         estimate D2E/DX2                !
 ! D96   D(23,18,19,20)        -54.4475         estimate D2E/DX2                !
 ! D97   D(23,18,19,25)         68.6558         estimate D2E/DX2                !
 ! D98   D(23,18,19,26)       -170.0257         estimate D2E/DX2                !
 ! D99   D(17,18,23,22)        175.9031         estimate D2E/DX2                !
 ! D100  D(17,18,23,24)        -68.3782         estimate D2E/DX2                !
 ! D101  D(17,18,23,27)         53.081          estimate D2E/DX2                !
 ! D102  D(19,18,23,22)         53.9853         estimate D2E/DX2                !
 ! D103  D(19,18,23,24)        169.704          estimate D2E/DX2                !
 ! D104  D(19,18,23,27)        -68.8367         estimate D2E/DX2                !
 ! D105  D(18,19,20,21)         51.7882         estimate D2E/DX2                !
 ! D106  D(18,19,20,45)        -67.4654         estimate D2E/DX2                !
 ! D107  D(18,19,20,46)        173.6803         estimate D2E/DX2                !
 ! D108  D(25,19,20,21)        -73.955          estimate D2E/DX2                !
 ! D109  D(25,19,20,45)        166.7913         estimate D2E/DX2                !
 ! D110  D(25,19,20,46)         47.9371         estimate D2E/DX2                !
 ! D111  D(26,19,20,21)        167.7691         estimate D2E/DX2                !
 ! D112  D(26,19,20,45)         48.5154         estimate D2E/DX2                !
 ! D113  D(26,19,20,46)        -70.3388         estimate D2E/DX2                !
 ! D114  D(18,19,25,52)        161.6305         estimate D2E/DX2                !
 ! D115  D(18,19,25,53)         42.5877         estimate D2E/DX2                !
 ! D116  D(18,19,25,54)        -79.0282         estimate D2E/DX2                !
 ! D117  D(20,19,25,52)        -76.7752         estimate D2E/DX2                !
 ! D118  D(20,19,25,53)        164.182          estimate D2E/DX2                !
 ! D119  D(20,19,25,54)         42.5662         estimate D2E/DX2                !
 ! D120  D(26,19,25,52)         40.6952         estimate D2E/DX2                !
 ! D121  D(26,19,25,53)        -78.3476         estimate D2E/DX2                !
 ! D122  D(26,19,25,54)        160.0366         estimate D2E/DX2                !
 ! D123  D(18,19,26,55)        169.1173         estimate D2E/DX2                !
 ! D124  D(18,19,26,56)         49.5595         estimate D2E/DX2                !
 ! D125  D(18,19,26,57)        -71.8993         estimate D2E/DX2                !
 ! D126  D(20,19,26,55)         53.4303         estimate D2E/DX2                !
 ! D127  D(20,19,26,56)        -66.1275         estimate D2E/DX2                !
 ! D128  D(20,19,26,57)        172.4137         estimate D2E/DX2                !
 ! D129  D(25,19,26,55)        -65.9039         estimate D2E/DX2                !
 ! D130  D(25,19,26,56)        174.5383         estimate D2E/DX2                !
 ! D131  D(25,19,26,57)         53.0794         estimate D2E/DX2                !
 ! D132  D(19,20,21,22)        -56.3422         estimate D2E/DX2                !
 ! D133  D(19,20,21,61)        122.5803         estimate D2E/DX2                !
 ! D134  D(45,20,21,22)         63.1319         estimate D2E/DX2                !
 ! D135  D(45,20,21,61)       -117.9455         estimate D2E/DX2                !
 ! D136  D(46,20,21,22)       -177.9108         estimate D2E/DX2                !
 ! D137  D(46,20,21,61)          1.0117         estimate D2E/DX2                !
 ! D138  D(20,21,22,23)         56.1614         estimate D2E/DX2                !
 ! D139  D(20,21,22,47)        -63.3458         estimate D2E/DX2                !
 ! D140  D(20,21,22,48)        177.778          estimate D2E/DX2                !
 ! D141  D(61,21,22,23)       -122.7583         estimate D2E/DX2                !
 ! D142  D(61,21,22,47)        117.7345         estimate D2E/DX2                !
 ! D143  D(61,21,22,48)         -1.1417         estimate D2E/DX2                !
 ! D144  D(21,22,23,18)        -51.2177         estimate D2E/DX2                !
 ! D145  D(21,22,23,24)       -167.3822         estimate D2E/DX2                !
 ! D146  D(21,22,23,27)         74.1927         estimate D2E/DX2                !
 ! D147  D(47,22,23,18)         68.2434         estimate D2E/DX2                !
 ! D148  D(47,22,23,24)        -47.9211         estimate D2E/DX2                !
 ! D149  D(47,22,23,27)       -166.3462         estimate D2E/DX2                !
 ! D150  D(48,22,23,18)       -173.238          estimate D2E/DX2                !
 ! D151  D(48,22,23,24)         70.5976         estimate D2E/DX2                !
 ! D152  D(48,22,23,27)        -47.8276         estimate D2E/DX2                !
 ! D153  D(18,23,24,49)         73.9615         estimate D2E/DX2                !
 ! D154  D(18,23,24,50)        -46.3624         estimate D2E/DX2                !
 ! D155  D(18,23,24,51)       -166.3817         estimate D2E/DX2                !
 ! D156  D(22,23,24,49)       -170.3778         estimate D2E/DX2                !
 ! D157  D(22,23,24,50)         69.2984         estimate D2E/DX2                !
 ! D158  D(22,23,24,51)        -50.7209         estimate D2E/DX2                !
 ! D159  D(27,23,24,49)        -50.989          estimate D2E/DX2                !
 ! D160  D(27,23,24,50)       -171.3129         estimate D2E/DX2                !
 ! D161  D(27,23,24,51)         68.6678         estimate D2E/DX2                !
 ! D162  D(18,23,27,58)         77.9388         estimate D2E/DX2                !
 ! D163  D(18,23,27,59)        -43.998          estimate D2E/DX2                !
 ! D164  D(18,23,27,60)       -162.6806         estimate D2E/DX2                !
 ! D165  D(22,23,27,58)        -43.3119         estimate D2E/DX2                !
 ! D166  D(22,23,27,59)       -165.2487         estimate D2E/DX2                !
 ! D167  D(22,23,27,60)         76.0687         estimate D2E/DX2                !
 ! D168  D(24,23,27,58)       -160.9418         estimate D2E/DX2                !
 ! D169  D(24,23,27,59)         77.1215         estimate D2E/DX2                !
 ! D170  D(24,23,27,60)        -41.5611         estimate D2E/DX2                !
 --------------------------------------------------------------------------------
 Trust Radius=3.00D-01 FncErr=1.00D-07 GrdErr=1.00D-06 EigMax=2.50D+02 EigMin=1.00D-04
 Number of steps in this run=    358 maximum allowed number of steps=    366.
 GradGradGradGradGradGradGradGradGradGradGradGradGradGradGradGradGradGrad

 Leave Link  103 at Sat Jan 11 03:44:19 2025, MaxMem=  4026531840 cpu:               0.5 elap:               0.1
 (Enter /usr/local/intel/g16/l202.exe)
 Stoichiometry    C25H33NO2
 Framework group  C1[X(C25H33NO2)]
 Deg. of freedom   177
 Full point group                 C1      NOp   1
 Largest Abelian subgroup         C1      NOp   1
 Largest concise Abelian subgroup C1      NOp   1
                         Standard orientation:                         
 ---------------------------------------------------------------------
 Center     Atomic      Atomic             Coordinates (Angstroms)
 Number     Number       Type             X           Y           Z
 ---------------------------------------------------------------------
      1          6           0        2.675935   -3.289421   -1.506116
      2          6           0        2.064871   -2.259186   -0.532599
      3          6           0        3.148051   -1.414875    0.127305
      4          6           0        3.940045   -0.531702   -0.630496
      5          6           0        4.908343    0.269849   -0.016860
      6          6           0        5.110983    0.195397    1.371261
      7          6           0        4.339907   -0.691575    2.134250
      8          6           0        3.365643   -1.489250    1.512196
      9          6           0        0.998487   -1.407287   -1.262692
     10          6           0        0.313619   -0.365440   -0.354294
     11          6           0        1.041408    0.963063   -0.307160
     12          6           0        1.243203    1.703131   -1.484733
     13          6           0        1.924101    2.925589   -1.448782
     14          6           0        2.418172    3.420121   -0.229734
     15          6           0        2.216709    2.686867    0.948043
     16          6           0        1.526372    1.467555    0.906173
     17          8           0       -1.053553   -0.207707   -0.892080
     18          7           0       -2.064628   -0.069684    0.158415
     19          6           0       -2.824093   -1.372507    0.216095
     20          6           0       -3.954751   -1.208689    1.267068
     21          6           0       -4.779943    0.029220    1.001419
     22          6           0       -3.959195    1.295901    0.952660
     23          6           0       -2.821442    1.207620   -0.101469
     24          6           0       -1.868108    2.388711    0.147681
     25          6           0       -3.412091   -1.838695   -1.137995
     26          6           0       -1.864399   -2.460080    0.738271
     27          6           0       -3.403710    1.330226   -1.530855
     28          1           0        3.401348   -3.927454   -0.991405
     29          1           0        3.195779   -2.786540   -2.329982
     30          1           0        1.895341   -3.926965   -1.937542
     31          1           0        1.546284   -2.815227    0.261774
     32          1           0        3.781022   -0.447311   -1.701902
     33          1           0        5.494280    0.960478   -0.614376
     34          1           0        5.858582    0.820789    1.848189
     35          1           0        4.491878   -0.761168    3.206806
     36          1           0        2.766163   -2.170219    2.111339
     37          1           0        0.223436   -2.079223   -1.649094
     38          1           0        1.448513   -0.914607   -2.132804
     39          1           0        0.218880   -0.760647    0.661992
     40          1           0        0.850326    1.329746   -2.426212
     41          1           0        2.069362    3.492318   -2.363056
     42          1           0        2.951179    4.364989   -0.200448
     43          1           0        2.598655    3.058429    1.893182
     44          1           0        1.378176    0.899198    1.819663
     45          1           0       -3.499426   -1.112667    2.261012
     46          1           0       -4.594753   -2.094654    1.254273
     47          1           0       -3.506478    1.452990    1.940057
     48          1           0       -4.601849    2.148436    0.719264
     49          1           0       -1.139869    2.486365   -0.659310
     50          1           0       -1.323294    2.251109    1.086211
     51          1           0       -2.445025    3.319164    0.204617
     52          1           0       -3.647719   -2.907308   -1.084551
     53          1           0       -2.677488   -1.683387   -1.932408
     54          1           0       -4.334356   -1.313722   -1.398394
     55          1           0       -2.432033   -3.366944    0.974589
     56          1           0       -1.356684   -2.120522    1.646987
     57          1           0       -1.115946   -2.722567   -0.014249
     58          1           0       -4.315548    0.743826   -1.669766
     59          1           0       -2.657356    1.010053   -2.262331
     60          1           0       -3.654237    2.378205   -1.728057
     61          8           0       -6.009377    0.002155    0.820231
 ---------------------------------------------------------------------
 Rotational constants (GHZ):           0.3184496           0.1180580           0.1015073
 Leave Link  202 at Sat Jan 11 03:44:19 2025, MaxMem=  4026531840 cpu:               0.1 elap:               0.0
 (Enter /usr/local/intel/g16/l301.exe)
 Standard basis: def2TZVP (5D, 7F)
 Ernie: Thresh=  0.10000D-02 Tol=  0.10000D-05 Strict=F.
 There are  1206 symmetry adapted cartesian basis functions of A   symmetry.
 There are  1066 symmetry adapted basis functions of A   symmetry.
  1066 basis functions,  1692 primitive gaussians,  1206 cartesian basis functions
   103 alpha electrons      103 beta electrons
       nuclear repulsion energy      2796.5599700971 Hartrees.
 IExCor= 4336 DFT=T Ex+Corr=M062X ExCW=0 ScaHFX=  0.540000
 ScaDFX=  1.000000  1.000000  1.000000  1.000000 ScalE2=  1.000000  1.000000
 IRadAn=      5 IRanWt=     -1 IRanGd=            0 ICorTp=0 IEmpDi=  4
 NAtoms=   61 NActive=   61 NUniq=   61 SFac= 1.00D+00 NAtFMM=   60 NAOKFM=T Big=T
 Integral buffers will be    131072 words long.
 Raffenetti 2 integral format.
 Two-electron integral symmetry is turned on.
 Leave Link  301 at Sat Jan 11 03:44:19 2025, MaxMem=  4026531840 cpu:               1.5 elap:               0.1
 (Enter /usr/local/intel/g16/l302.exe)
 NPDir=0 NMtPBC=     1 NCelOv=     1 NCel=       1 NClECP=     1 NCelD=      1
         NCelK=      1 NCelE2=     1 NClLst=     1 CellRange=     0.0.
 One-electron integrals computed using PRISM.
 One-electron integral symmetry used in STVInt
   1 Symmetry operations used in ECPInt.
 ECPInt:  NShTT=   97020 NPrTT=  288376 LenC2=   83118 LenP2D=  172707.
 LDataN:  DoStor=T MaxTD1= 6 Len=  172
 NBasis=  1066 RedAO= T EigKep=  6.60D-06  NBF=  1066
 NBsUse=  1066 1.00D-06 EigRej= -1.00D+00 NBFU=  1066
 Precomputing XC quadrature grid using
 IXCGrd= 4 IRadAn=           5 IRanWt=          -1 IRanGd=           0 AccXCQ= 0.00D+00.
 Generated NRdTot=       0 NPtTot=           0 NUsed=           0 NTot=          32
 NSgBfM=  1179  1179  1179  1179  1179 MxSgAt=    61 MxSgA2=    61.
 Leave Link  302 at Sat Jan 11 03:44:24 2025, MaxMem=  4026531840 cpu:              98.7 elap:               4.9
 (Enter /usr/local/intel/g16/l303.exe)
 DipDrv:  MaxL=1.
 Leave Link  303 at Sat Jan 11 03:44:25 2025, MaxMem=  4026531840 cpu:               8.1 elap:               0.5
 (Enter /usr/local/intel/g16/l401.exe)
 ExpMin= 9.52D-02 ExpMax= 2.70D+04 ExpMxC= 9.22D+02 IAcc=3 IRadAn=         5 AccDes= 0.00D+00
 Harris functional with IExCor= 1009 and IRadAn=       5 diagonalized for initial guess.
 HarFok:  IExCor= 1009 AccDes= 0.00D+00 IRadAn=         5 IDoV= 1 UseB2=F ITyADJ=14
 ICtDFT=  3500011 ScaDFX=  1.000000  1.000000  1.000000  1.000000
 FoFCou: FMM=F IPFlag=           0 FMFlag=      100000 FMFlg1=        2001
         NFxFlg=           0 DoJE=T BraDBF=F KetDBF=T FulRan=T
         wScrn=  0.000000 ICntrl=       500 IOpCl=  0 I1Cent=   200000004 NGrid=           0
         NMat0=    1 NMatS0=      1 NMatT0=    0 NMatD0=    1 NMtDS0=    0 NMtDT0=    0
 Petite list used in FoFCou.
 Harris En= -1177.15033279030    
 JPrj=0 DoOrth=F DoCkMO=F.
 Leave Link  401 at Sat Jan 11 03:44:37 2025, MaxMem=  4026531840 cpu:             231.7 elap:              11.6
 (Enter /usr/local/intel/g16/l502.exe)
 Integral symmetry usage will be decided dynamically.
 Closed shell SCF:
 Using DIIS extrapolation, IDIIS=  1040.
 NGot=  4026531840 LenX=  4023586646 LenY=  4022131004
 Requested convergence on RMS density matrix=1.00D-08 within 128 cycles.
 Requested convergence on MAX density matrix=1.00D-06.
 Requested convergence on             energy=1.00D-06.
 No special actions if energy rises.
 Fock matrices will be formed incrementally for  20 cycles.
 Integral accuracy reduced to 1.0D-05 until final iterations.

 Cycle   1  Pass 0  IDiag  1:
 FoFJK:  IHMeth= 1 ICntrl=       0 DoSepK=F KAlg= 0 I1Cent=           0 FoldK=F
 IRaf= 900000000 NMat=       1 IRICut=       1 DoRegI=T DoRafI=F ISym2E= 0 IDoP0=0 IntGTp=1.
 FoFCou: FMM=T IPFlag=           0 FMFlag=      100000 FMFlg1=        2001
         NFxFlg=           0 DoJE=F BraDBF=F KetDBF=F FulRan=T
         wScrn=  0.000000 ICntrl=         0 IOpCl=  0 I1Cent=           0 NGrid=           0
         NMat0=    1 NMatS0=      1 NMatT0=    0 NMatD0=    1 NMtDS0=    0 NMtDT0=    0
 Symmetry not used in FoFCou.
 FMM levels:  10  Number of levels for PrismC:   9
 E= -1176.77039287367    
 DIIS: error= 1.78D-02 at cycle   1 NSaved=   1.
 NSaved= 1 IEnMin= 1 EnMin= -1176.77039287367     IErMin= 1 ErrMin= 1.78D-02
 ErrMax= 1.78D-02  0.00D+00 EMaxC= 1.00D-01 BMatC= 9.71D-01 BMatP= 9.71D-01
 IDIUse=3 WtCom= 8.22D-01 WtEn= 1.78D-01
 Coeff-Com:  0.100D+01
 Coeff-En:   0.100D+01
 Coeff:      0.100D+01
 Gap=     0.404 Goal=   None    Shift=    0.000
 GapD=    0.404 DampG=2.000 DampE=0.500 DampFc=1.0000 IDamp=-1.
 RMSDP=5.61D+01 MaxDP=9.34D+03              OVMax= 9.84D-01

 Problem detected with inexpensive integrals.
 Switching to full accuracy and repeating last cycle.
 Cycle   2  Pass 1  IDiag  1:
 E= -1176.77043645573     Delta-E=       -0.000043582061 Rises=F Damp=F
 DIIS: error= 1.78D-02 at cycle   1 NSaved=   1.
 NSaved= 1 IEnMin= 1 EnMin= -1176.77043645573     IErMin= 1 ErrMin= 1.78D-02
 ErrMax= 1.78D-02  0.00D+00 EMaxC= 1.00D-01 BMatC= 9.70D-01 BMatP= 9.70D-01
 IDIUse=3 WtCom= 8.22D-01 WtEn= 1.78D-01
 Coeff-Com:  0.100D+01
 Coeff-En:   0.100D+01
 Coeff:      0.100D+01
 Gap=     0.404 Goal=   None    Shift=    0.000
 GapD=    0.404 DampG=2.000 DampE=0.500 DampFc=1.0000 IDamp=-1.
 RMSDP=2.69D-03 MaxDP=6.70D-01 DE=-4.36D-05 OVMax= 1.47D-01

 Cycle   3  Pass 1  IDiag  1:
 RMSU=  2.68D-03    CP:  9.52D-01
 E= -1177.00320810480     Delta-E=       -0.232771649072 Rises=F Damp=F
 DIIS: error= 1.59D-02 at cycle   2 NSaved=   2.
 NSaved= 2 IEnMin= 2 EnMin= -1177.00320810480     IErMin= 2 ErrMin= 1.59D-02
 ErrMax= 1.59D-02  0.00D+00 EMaxC= 1.00D-01 BMatC= 6.38D-01 BMatP= 9.70D-01
 IDIUse=3 WtCom= 8.41D-01 WtEn= 1.59D-01
 Coeff-Com:  0.443D+00 0.557D+00
 Coeff-En:   0.406D+00 0.594D+00
 Coeff:      0.437D+00 0.563D+00
 Gap=     0.341 Goal=   None    Shift=    0.000
 GapD=    0.341 DampG=1.000 DampE=0.500 DampFc=0.5000 IDamp=-1.
 Damping current iteration by 5.00D-01
 RMSDP=1.94D-03 MaxDP=5.33D-01 DE=-2.33D-01 OVMax= 9.51D-02

 Cycle   4  Pass 1  IDiag  1:
 RMSU=  5.59D-04    CP:  9.44D-01  7.04D-01
 E= -1177.39226125025     Delta-E=       -0.389053145449 Rises=F Damp=T
 DIIS: error= 7.62D-03 at cycle   3 NSaved=   3.
 NSaved= 3 IEnMin= 3 EnMin= -1177.39226125025     IErMin= 3 ErrMin= 7.62D-03
 ErrMax= 7.62D-03  0.00D+00 EMaxC= 1.00D-01 BMatC= 1.19D-01 BMatP= 6.38D-01
 IDIUse=3 WtCom= 9.24D-01 WtEn= 7.62D-02
 Coeff-Com:  0.121D+00-0.409D+00 0.129D+01
 Coeff-En:   0.246D-01 0.000D+00 0.975D+00
 Coeff:      0.114D+00-0.378D+00 0.126D+01
 Gap=     0.311 Goal=   None    Shift=    0.000
 RMSDP=8.75D-04 MaxDP=2.16D-01 DE=-3.89D-01 OVMax= 2.91D-02

 Cycle   5  Pass 1  IDiag  1:
 RMSU=  2.76D-04    CP:  9.34D-01  4.54D-01  1.87D+00
 E= -1177.59843838982     Delta-E=       -0.206177139567 Rises=F Damp=F
 DIIS: error= 2.35D-03 at cycle   4 NSaved=   4.
 NSaved= 4 IEnMin= 4 EnMin= -1177.59843838982     IErMin= 4 ErrMin= 2.35D-03
 ErrMax= 2.35D-03  0.00D+00 EMaxC= 1.00D-01 BMatC= 7.94D-03 BMatP= 1.19D-01
 IDIUse=3 WtCom= 9.77D-01 WtEn= 2.35D-02
 Coeff-Com:  0.157D-01-0.280D+00 0.718D+00 0.546D+00
 Coeff-En:   0.000D+00 0.000D+00 0.000D+00 0.100D+01
 Coeff:      0.153D-01-0.273D+00 0.701D+00 0.557D+00
 Gap=     0.296 Goal=   None    Shift=    0.000
 RMSDP=1.12D-04 MaxDP=2.10D-02 DE=-2.06D-01 OVMax= 1.25D-02

 Cycle   6  Pass 1  IDiag  1:
 RMSU=  9.47D-05    CP:  9.33D-01  4.45D-01  1.93D+00  8.41D-01
 E= -1177.60490556768     Delta-E=       -0.006467177862 Rises=F Damp=F
 DIIS: error= 3.45D-04 at cycle   5 NSaved=   5.
 NSaved= 5 IEnMin= 5 EnMin= -1177.60490556768     IErMin= 5 ErrMin= 3.45D-04
 ErrMax= 3.45D-04  0.00D+00 EMaxC= 1.00D-01 BMatC= 2.83D-04 BMatP= 7.94D-03
 IDIUse=3 WtCom= 9.97D-01 WtEn= 3.45D-03
 Coeff-Com:  0.363D-03-0.898D-01 0.220D+00 0.238D+00 0.631D+00
 Coeff-En:   0.000D+00 0.000D+00 0.000D+00 0.000D+00 0.100D+01
 Coeff:      0.361D-03-0.895D-01 0.219D+00 0.238D+00 0.632D+00
 Gap=     0.296 Goal=   None    Shift=    0.000
 RMSDP=2.75D-05 MaxDP=3.39D-03 DE=-6.47D-03 OVMax= 2.84D-03

 Cycle   7  Pass 1  IDiag  1:
 RMSU=  2.29D-05    CP:  9.33D-01  4.45D-01  1.94D+00  8.35D-01  8.81D-01
 E= -1177.60512220019     Delta-E=       -0.000216632504 Rises=F Damp=F
 DIIS: error= 9.00D-05 at cycle   6 NSaved=   6.
 NSaved= 6 IEnMin= 6 EnMin= -1177.60512220019     IErMin= 6 ErrMin= 9.00D-05
 ErrMax= 9.00D-05  0.00D+00 EMaxC= 1.00D-01 BMatC= 2.82D-05 BMatP= 2.83D-04
 IDIUse=1 WtCom= 1.00D+00 WtEn= 0.00D+00
 Coeff-Com: -0.948D-03-0.188D-01 0.425D-01 0.631D-01 0.299D+00 0.615D+00
 Coeff:     -0.948D-03-0.188D-01 0.425D-01 0.631D-01 0.299D+00 0.615D+00
 Gap=     0.296 Goal=   None    Shift=    0.000
 RMSDP=1.01D-05 MaxDP=2.11D-03 DE=-2.17D-04 OVMax= 9.57D-04

 Cycle   8  Pass 1  IDiag  1:
 RMSU=  7.44D-06    CP:  9.33D-01  4.43D-01  1.95D+00  8.40D-01  9.09D-01
                    CP:  9.11D-01
 E= -1177.60514557717     Delta-E=       -0.000023376980 Rises=F Damp=F
 DIIS: error= 2.35D-05 at cycle   7 NSaved=   7.
 NSaved= 7 IEnMin= 7 EnMin= -1177.60514557717     IErMin= 7 ErrMin= 2.35D-05
 ErrMax= 2.35D-05  0.00D+00 EMaxC= 1.00D-01 BMatC= 1.78D-06 BMatP= 2.82D-05
 IDIUse=1 WtCom= 1.00D+00 WtEn= 0.00D+00
 Coeff-Com: -0.351D-03 0.312D-02-0.955D-02-0.743D-02 0.305D-01 0.194D+00
 Coeff-Com:  0.790D+00
 Coeff:     -0.351D-03 0.312D-02-0.955D-02-0.743D-02 0.305D-01 0.194D+00
 Coeff:      0.790D+00
 Gap=     0.296 Goal=   None    Shift=    0.000
 RMSDP=4.74D-06 MaxDP=1.10D-03 DE=-2.34D-05 OVMax= 3.17D-04

 Cycle   9  Pass 1  IDiag  1:
 RMSU=  2.66D-06    CP:  9.33D-01  4.42D-01  1.95D+00  8.37D-01  9.28D-01
                    CP:  9.61D-01  1.07D+00
 E= -1177.60514714781     Delta-E=       -0.000001570639 Rises=F Damp=F
 DIIS: error= 1.44D-05 at cycle   8 NSaved=   8.
 NSaved= 8 IEnMin= 8 EnMin= -1177.60514714781     IErMin= 8 ErrMin= 1.44D-05
 ErrMax= 1.44D-05  0.00D+00 EMaxC= 1.00D-01 BMatC= 5.01D-07 BMatP= 1.78D-06
 IDIUse=1 WtCom= 1.00D+00 WtEn= 0.00D+00
 Coeff-Com: -0.386D-04 0.356D-02-0.941D-02-0.125D-01-0.253D-01 0.612D-02
 Coeff-Com:  0.394D+00 0.643D+00
 Coeff:     -0.386D-04 0.356D-02-0.941D-02-0.125D-01-0.253D-01 0.612D-02
 Coeff:      0.394D+00 0.643D+00
 Gap=     0.296 Goal=   None    Shift=    0.000
 RMSDP=1.50D-06 MaxDP=3.40D-04 DE=-1.57D-06 OVMax= 1.31D-04

 Cycle  10  Pass 1  IDiag  1:
 RMSU=  9.48D-07    CP:  9.33D-01  4.42D-01  1.95D+00  8.37D-01  9.33D-01
                    CP:  9.63D-01  1.14D+00  1.02D+00
 E= -1177.60514761310     Delta-E=       -0.000000465299 Rises=F Damp=F
 DIIS: error= 3.57D-06 at cycle   9 NSaved=   9.
 NSaved= 9 IEnMin= 9 EnMin= -1177.60514761310     IErMin= 9 ErrMin= 3.57D-06
 ErrMax= 3.57D-06  0.00D+00 EMaxC= 1.00D-01 BMatC= 3.17D-08 BMatP= 5.01D-07
 IDIUse=1 WtCom= 1.00D+00 WtEn= 0.00D+00
 Coeff-Com:  0.696D-05 0.774D-03-0.207D-02-0.379D-02-0.104D-01-0.128D-01
 Coeff-Com:  0.712D-01 0.230D+00 0.727D+00
 Coeff:      0.696D-05 0.774D-03-0.207D-02-0.379D-02-0.104D-01-0.128D-01
 Coeff:      0.712D-01 0.230D+00 0.727D+00
 Gap=     0.296 Goal=   None    Shift=    0.000
 RMSDP=4.44D-07 MaxDP=9.57D-05 DE=-4.65D-07 OVMax= 4.49D-05

 Cycle  11  Pass 1  IDiag  1:
 RMSU=  2.72D-07    CP:  9.33D-01  4.42D-01  1.95D+00  8.36D-01  9.33D-01
                    CP:  9.65D-01  1.15D+00  1.04D+00  9.50D-01
 E= -1177.60514764013     Delta-E=       -0.000000027030 Rises=F Damp=F
 DIIS: error= 1.91D-06 at cycle  10 NSaved=  10.
 NSaved=10 IEnMin=10 EnMin= -1177.60514764013     IErMin=10 ErrMin= 1.91D-06
 ErrMax= 1.91D-06  0.00D+00 EMaxC= 1.00D-01 BMatC= 7.44D-09 BMatP= 3.17D-08
 IDIUse=1 WtCom= 1.00D+00 WtEn= 0.00D+00
 Coeff-Com:  0.581D-05-0.902D-04 0.199D-03-0.380D-03-0.191D-02-0.710D-02
 Coeff-Com: -0.166D-01 0.271D-01 0.365D+00 0.634D+00
 Coeff:      0.581D-05-0.902D-04 0.199D-03-0.380D-03-0.191D-02-0.710D-02
 Coeff:     -0.166D-01 0.271D-01 0.365D+00 0.634D+00
 Gap=     0.296 Goal=   None    Shift=    0.000
 RMSDP=2.24D-07 MaxDP=5.34D-05 DE=-2.70D-08 OVMax= 1.79D-05

 Cycle  12  Pass 1  IDiag  1:
 RMSU=  1.17D-07    CP:  9.33D-01  4.42D-01  1.95D+00  8.36D-01  9.34D-01
                    CP:  9.64D-01  1.16D+00  1.06D+00  1.05D+00  9.48D-01
 E= -1177.60514764714     Delta-E=       -0.000000007004 Rises=F Damp=F
 DIIS: error= 7.27D-07 at cycle  11 NSaved=  11.
 NSaved=11 IEnMin=11 EnMin= -1177.60514764714     IErMin=11 ErrMin= 7.27D-07
 ErrMax= 7.27D-07  0.00D+00 EMaxC= 1.00D-01 BMatC= 6.24D-10 BMatP= 7.44D-09
 IDIUse=1 WtCom= 1.00D+00 WtEn= 0.00D+00
 Coeff-Com:  0.204D-05-0.108D-03 0.269D-03 0.191D-03 0.442D-03-0.974D-03
 Coeff-Com: -0.121D-01-0.162D-01 0.416D-01 0.236D+00 0.751D+00
 Coeff:      0.204D-05-0.108D-03 0.269D-03 0.191D-03 0.442D-03-0.974D-03
 Coeff:     -0.121D-01-0.162D-01 0.416D-01 0.236D+00 0.751D+00
 Gap=     0.296 Goal=   None    Shift=    0.000
 RMSDP=7.42D-08 MaxDP=1.72D-05 DE=-7.00D-09 OVMax= 8.46D-06

 Cycle  13  Pass 1  IDiag  1:
 RMSU=  4.03D-08    CP:  9.33D-01  4.42D-01  1.95D+00  8.36D-01  9.35D-01
                    CP:  9.63D-01  1.16D+00  1.07D+00  1.06D+00  1.04D+00
                    CP:  1.03D+00
 E= -1177.60514764787     Delta-E=       -0.000000000727 Rises=F Damp=F
 DIIS: error= 2.69D-07 at cycle  12 NSaved=  12.
 NSaved=12 IEnMin=12 EnMin= -1177.60514764787     IErMin=12 ErrMin= 2.69D-07
 ErrMax= 2.69D-07  0.00D+00 EMaxC= 1.00D-01 BMatC= 1.42D-10 BMatP= 6.24D-10
 IDIUse=1 WtCom= 1.00D+00 WtEn= 0.00D+00
 Coeff-Com:  0.603D-06-0.411D-04 0.103D-03 0.129D-03 0.508D-03 0.499D-03
 Coeff-Com: -0.306D-02-0.122D-01-0.398D-01 0.104D-01 0.363D+00 0.681D+00
 Coeff:      0.603D-06-0.411D-04 0.103D-03 0.129D-03 0.508D-03 0.499D-03
 Coeff:     -0.306D-02-0.122D-01-0.398D-01 0.104D-01 0.363D+00 0.681D+00
 Gap=     0.296 Goal=   None    Shift=    0.000
 RMSDP=2.58D-08 MaxDP=4.74D-06 DE=-7.27D-10 OVMax= 3.80D-06

 Cycle  14  Pass 1  IDiag  1:
 RMSU=  1.53D-08    CP:  9.33D-01  4.42D-01  1.95D+00  8.36D-01  9.35D-01
                    CP:  9.63D-01  1.16D+00  1.07D+00  1.07D+00  1.05D+00
                    CP:  1.10D+00  8.81D-01
 E= -1177.60514764798     Delta-E=       -0.000000000111 Rises=F Damp=F
 DIIS: error= 9.70D-08 at cycle  13 NSaved=  13.
 NSaved=13 IEnMin=13 EnMin= -1177.60514764798     IErMin=13 ErrMin= 9.70D-08
 ErrMax= 9.70D-08  0.00D+00 EMaxC= 1.00D-01 BMatC= 1.28D-11 BMatP= 1.42D-10
 IDIUse=1 WtCom= 1.00D+00 WtEn= 0.00D+00
 Coeff-Com:  0.186D-06-0.844D-05 0.201D-04 0.331D-04 0.184D-03 0.259D-03
 Coeff-Com: -0.165D-03-0.357D-02-0.208D-01-0.188D-01 0.778D-01 0.292D+00
 Coeff-Com:  0.673D+00
 Coeff:      0.186D-06-0.844D-05 0.201D-04 0.331D-04 0.184D-03 0.259D-03
 Coeff:     -0.165D-03-0.357D-02-0.208D-01-0.188D-01 0.778D-01 0.292D+00
 Coeff:      0.673D+00
 Gap=     0.296 Goal=   None    Shift=    0.000
 RMSDP=8.37D-09 MaxDP=1.77D-06 DE=-1.11D-10 OVMax= 1.18D-06

 Cycle  15  Pass 1  IDiag  1:
 RMSU=  4.57D-09    CP:  9.33D-01  4.42D-01  1.95D+00  8.36D-01  9.35D-01
                    CP:  9.63D-01  1.16D+00  1.07D+00  1.06D+00  1.06D+00
                    CP:  1.11D+00  9.28D-01  9.44D-01
 E= -1177.60514764801     Delta-E=       -0.000000000033 Rises=F Damp=F
 DIIS: error= 2.63D-08 at cycle  14 NSaved=  14.
 NSaved=14 IEnMin=14 EnMin= -1177.60514764801     IErMin=14 ErrMin= 2.63D-08
 ErrMax= 2.63D-08  0.00D+00 EMaxC= 1.00D-01 BMatC= 2.01D-12 BMatP= 1.28D-11
 IDIUse=1 WtCom= 1.00D+00 WtEn= 0.00D+00
 Coeff-Com:  0.309D-07 0.246D-05-0.680D-05-0.558D-05 0.913D-05 0.296D-04
 Coeff-Com:  0.389D-03 0.151D-03-0.442D-02-0.112D-01-0.174D-01 0.408D-01
 Coeff-Com:  0.320D+00 0.671D+00
 Coeff:      0.309D-07 0.246D-05-0.680D-05-0.558D-05 0.913D-05 0.296D-04
 Coeff:      0.389D-03 0.151D-03-0.442D-02-0.112D-01-0.174D-01 0.408D-01
 Coeff:      0.320D+00 0.671D+00
 Gap=     0.296 Goal=   None    Shift=    0.000
 RMSDP=4.30D-09 MaxDP=1.02D-06 DE=-3.32D-11 OVMax= 4.89D-07

 Cycle  16  Pass 1  IDiag  1:
 RMSU=  2.08D-09    CP:  9.33D-01  4.42D-01  1.95D+00  8.36D-01  9.35D-01
                    CP:  9.63D-01  1.16D+00  1.07D+00  1.07D+00  1.06D+00
                    CP:  1.12D+00  9.48D-01  1.02D+00  9.58D-01
 E= -1177.60514764807     Delta-E=       -0.000000000058 Rises=F Damp=F
 DIIS: error= 1.31D-08 at cycle  15 NSaved=  15.
 NSaved=15 IEnMin=15 EnMin= -1177.60514764807     IErMin=15 ErrMin= 1.31D-08
 ErrMax= 1.31D-08  0.00D+00 EMaxC= 1.00D-01 BMatC= 1.91D-13 BMatP= 2.01D-12
 IDIUse=1 WtCom= 1.00D+00 WtEn= 0.00D+00
 Coeff-Com: -0.142D-07 0.126D-05-0.337D-05-0.443D-05-0.130D-04-0.146D-04
 Coeff-Com:  0.150D-03 0.450D-03 0.930D-03-0.147D-02-0.148D-01-0.194D-01
 Coeff-Com:  0.396D-01 0.264D+00 0.730D+00
 Coeff:     -0.142D-07 0.126D-05-0.337D-05-0.443D-05-0.130D-04-0.146D-04
 Coeff:      0.150D-03 0.450D-03 0.930D-03-0.147D-02-0.148D-01-0.194D-01
 Coeff:      0.396D-01 0.264D+00 0.730D+00
 Gap=     0.296 Goal=   None    Shift=    0.000
 RMSDP=1.07D-09 MaxDP=1.53D-07 DE=-5.82D-11 OVMax= 2.42D-07

 SCF Done:  E(RM062X) =  -1177.60514765     A.U. after   16 cycles
            NFock= 16  Conv=0.11D-08     -V/T= 2.0060
 KE= 1.170553994984D+03 PE=-8.328544658540D+03 EE= 3.183825545811D+03
 Leave Link  502 at Sat Jan 11 04:16:15 2025, MaxMem=  4026531840 cpu:           37902.3 elap:            1897.7
 (Enter /usr/local/intel/g16/l601.exe)
 Copying SCF densities to generalized density rwf, IOpCl= 0 IROHF=0.

 **********************************************************************

            Population analysis using the SCF Density.

 **********************************************************************

 Orbital symmetries:
       Occupied  (A) (A) (A) (A) (A) (A) (A) (A) (A) (A) (A) (A)
                 (A) (A) (A) (A) (A) (A) (A) (A) (A) (A) (A) (A)
                 (A) (A) (A) (A) (A) (A) (A) (A) (A) (A) (A) (A)
                 (A) (A) (A) (A) (A) (A) (A) (A) (A) (A) (A) (A)
                 (A) (A) (A) (A) (A) (A) (A) (A) (A) (A) (A) (A)
                 (A) (A) (A) (A) (A) (A) (A) (A) (A) (A) (A) (A)
                 (A) (A) (A) (A) (A) (A) (A) (A) (A) (A) (A) (A)
                 (A) (A) (A) (A) (A) (A) (A) (A) (A) (A) (A) (A)
                 (A) (A) (A) (A) (A) (A) (A)
       Virtual   (A) (A) (A) (A) (A) (A) (A) (A) (A) (A) (A) (A)
                 (A) (A) (A) (A) (A) (A) (A) (A) (A) (A) (A) (A)
                 (A) (A) (A) (A) (A) (A) (A) (A) (A) (A) (A) (A)
                 (A) (A) (A) (A) (A) (A) (A) (A) (A) (A) (A) (A)
                 (A) (A) (A) (A) (A) (A) (A) (A) (A) (A) (A) (A)
                 (A) (A) (A) (A) (A) (A) (A) (A) (A) (A) (A) (A)
                 (A) (A) (A) (A) (A) (A) (A) (A) (A) (A) (A) (A)
                 (A) (A) (A) (A) (A) (A) (A) (A) (A) (A) (A) (A)
                 (A) (A) (A) (A) (A) (A) (A) (A) (A) (A) (A) (A)
                 (A) (A) (A) (A) (A) (A) (A) (A) (A) (A) (A) (A)
                 (A) (A) (A) (A) (A) (A) (A) (A) (A) (A) (A) (A)
                 (A) (A) (A) (A) (A) (A) (A) (A) (A) (A) (A) (A)
                 (A) (A) (A) (A) (A) (A) (A) (A) (A) (A) (A) (A)
                 (A) (A) (A) (A) (A) (A) (A) (A) (A) (A) (A) (A)
                 (A) (A) (A) (A) (A) (A) (A) (A) (A) (A) (A) (A)
                 (A) (A) (A) (A) (A) (A) (A) (A) (A) (A) (A) (A)
                 (A) (A) (A) (A) (A) (A) (A) (A) (A) (A) (A) (A)
                 (A) (A) (A) (A) (A) (A) (A) (A) (A) (A) (A) (A)
                 (A) (A) (A) (A) (A) (A) (A) (A) (A) (A) (A) (A)
                 (A) (A) (A) (A) (A) (A) (A) (A) (A) (A) (A) (A)
                 (A) (A) (A) (A) (A) (A) (A) (A) (A) (A) (A) (A)
                 (A) (A) (A) (A) (A) (A) (A) (A) (A) (A) (A) (A)
                 (A) (A) (A) (A) (A) (A) (A) (A) (A) (A) (A) (A)
                 (A) (A) (A) (A) (A) (A) (A) (A) (A) (A) (A) (A)
                 (A) (A) (A) (A) (A) (A) (A) (A) (A) (A) (A) (A)
                 (A) (A) (A) (A) (A) (A) (A) (A) (A) (A) (A) (A)
                 (A) (A) (A) (A) (A) (A) (A) (A) (A) (A) (A) (A)
                 (A) (A) (A) (A) (A) (A) (A) (A) (A) (A) (A) (A)
                 (A) (A) (A) (A) (A) (A) (A) (A) (A) (A) (A) (A)
                 (A) (A) (A) (A) (A) (A) (A) (A) (A) (A) (A) (A)
                 (A) (A) (A) (A) (A) (A) (A) (A) (A) (A) (A) (A)
                 (A) (A) (A) (A) (A) (A) (A) (A) (A) (A) (A) (A)
                 (A) (A) (A) (A) (A) (A) (A) (A) (A) (A) (A) (A)
                 (A) (A) (A) (A) (A) (A) (A) (A) (A) (A) (A) (A)
                 (A) (A) (A) (A) (A) (A) (A) (A) (A) (A) (A) (A)
                 (A) (A) (A) (A) (A) (A) (A) (A) (A) (A) (A) (A)
                 (A) (A) (A) (A) (A) (A) (A) (A) (A) (A) (A) (A)
                 (A) (A) (A) (A) (A) (A) (A) (A) (A) (A) (A) (A)
                 (A) (A) (A) (A) (A) (A) (A) (A) (A) (A) (A) (A)
                 (A) (A) (A) (A) (A) (A) (A) (A) (A) (A) (A) (A)
                 (A) (A) (A) (A) (A) (A) (A) (A) (A) (A) (A) (A)
                 (A) (A) (A) (A) (A) (A) (A) (A) (A) (A) (A) (A)
                 (A) (A) (A) (A) (A) (A) (A) (A) (A) (A) (A) (A)
                 (A) (A) (A) (A) (A) (A) (A) (A) (A) (A) (A) (A)
                 (A) (A) (A) (A) (A) (A) (A) (A) (A) (A) (A) (A)
                 (A) (A) (A) (A) (A) (A) (A) (A) (A) (A) (A) (A)
                 (A) (A) (A) (A) (A) (A) (A) (A) (A) (A) (A) (A)
                 (A) (A) (A) (A) (A) (A) (A) (A) (A) (A) (A) (A)
                 (A) (A) (A) (A) (A) (A) (A) (A) (A) (A) (A) (A)
                 (A) (A) (A) (A) (A) (A) (A) (A) (A) (A) (A) (A)
                 (A) (A) (A) (A) (A) (A) (A) (A) (A) (A) (A) (A)
                 (A) (A) (A) (A) (A) (A) (A) (A) (A) (A) (A) (A)
                 (A) (A) (A) (A) (A) (A) (A) (A) (A) (A) (A) (A)
                 (A) (A) (A) (A) (A) (A) (A) (A) (A) (A) (A) (A)
                 (A) (A) (A) (A) (A) (A) (A) (A) (A) (A) (A) (A)
                 (A) (A) (A) (A) (A) (A) (A) (A) (A) (A) (A) (A)
                 (A) (A) (A) (A) (A) (A) (A) (A) (A) (A) (A) (A)
                 (A) (A) (A) (A) (A) (A) (A) (A) (A) (A) (A) (A)
                 (A) (A) (A) (A) (A) (A) (A) (A) (A) (A) (A) (A)
                 (A) (A) (A) (A) (A) (A) (A) (A) (A) (A) (A) (A)
                 (A) (A) (A) (A) (A) (A) (A) (A) (A) (A) (A) (A)
                 (A) (A) (A) (A) (A) (A) (A) (A) (A) (A) (A) (A)
                 (A) (A) (A) (A) (A) (A) (A) (A) (A) (A) (A) (A)
                 (A) (A) (A) (A) (A) (A) (A) (A) (A) (A) (A) (A)
                 (A) (A) (A) (A) (A) (A) (A) (A) (A) (A) (A) (A)
                 (A) (A) (A) (A) (A) (A) (A) (A) (A) (A) (A) (A)
                 (A) (A) (A) (A) (A) (A) (A) (A) (A) (A) (A) (A)
                 (A) (A) (A) (A) (A) (A) (A) (A) (A) (A) (A) (A)
                 (A) (A) (A) (A) (A) (A) (A) (A) (A) (A) (A) (A)
                 (A) (A) (A) (A) (A) (A) (A) (A) (A) (A) (A) (A)
                 (A) (A) (A) (A) (A) (A) (A) (A) (A) (A) (A) (A)
                 (A) (A) (A) (A) (A) (A) (A) (A) (A) (A) (A) (A)
                 (A) (A) (A) (A) (A) (A) (A) (A) (A) (A) (A) (A)
                 (A) (A) (A) (A) (A) (A) (A) (A) (A) (A) (A) (A)
                 (A) (A) (A) (A) (A) (A) (A) (A) (A) (A) (A) (A)
                 (A) (A) (A) (A) (A) (A) (A) (A) (A) (A) (A) (A)
                 (A) (A) (A) (A) (A) (A) (A) (A) (A) (A) (A) (A)
                 (A) (A) (A) (A) (A) (A) (A) (A) (A) (A) (A) (A)
                 (A) (A) (A) (A) (A) (A) (A) (A) (A) (A) (A) (A)
                 (A) (A) (A) (A) (A) (A) (A) (A) (A) (A) (A) (A)
                 (A) (A) (A)
 The electronic state is 1-A.
 Alpha  occ. eigenvalues --  -19.65450 -19.61890 -14.79589 -10.63047 -10.59731
 Alpha  occ. eigenvalues --  -10.59281 -10.58833 -10.55511 -10.55183 -10.54929
 Alpha  occ. eigenvalues --  -10.54699 -10.54695 -10.54618 -10.54596 -10.54518
 Alpha  occ. eigenvalues --  -10.54518 -10.54437 -10.54426 -10.54421 -10.54390
 Alpha  occ. eigenvalues --  -10.54315 -10.54285 -10.54191 -10.53349 -10.53207
 Alpha  occ. eigenvalues --  -10.52495 -10.52136 -10.51833  -1.17273  -1.14777
 Alpha  occ. eigenvalues --   -0.99518  -0.96425  -0.95596  -0.91652  -0.91278
 Alpha  occ. eigenvalues --   -0.87755  -0.84843  -0.84139  -0.83986  -0.82913
 Alpha  occ. eigenvalues --   -0.82107  -0.79741  -0.78743  -0.78403  -0.77228
 Alpha  occ. eigenvalues --   -0.72786  -0.70841  -0.68931  -0.68816  -0.66740
 Alpha  occ. eigenvalues --   -0.66058  -0.64360  -0.64249  -0.60125  -0.59650
 Alpha  occ. eigenvalues --   -0.58580  -0.56735  -0.56233  -0.54598  -0.53951
 Alpha  occ. eigenvalues --   -0.53191  -0.53050  -0.52976  -0.52713  -0.51539
 Alpha  occ. eigenvalues --   -0.50644  -0.50591  -0.49864  -0.49414  -0.49180
 Alpha  occ. eigenvalues --   -0.48886  -0.48554  -0.48264  -0.47442  -0.46398
 Alpha  occ. eigenvalues --   -0.45621  -0.45524  -0.44990  -0.44784  -0.44282
 Alpha  occ. eigenvalues --   -0.44086  -0.43633  -0.43256  -0.43129  -0.42716
 Alpha  occ. eigenvalues --   -0.42641  -0.41385  -0.40869  -0.40544  -0.40327
 Alpha  occ. eigenvalues --   -0.39705  -0.39615  -0.38944  -0.38713  -0.38231
 Alpha  occ. eigenvalues --   -0.37618  -0.34434  -0.31688  -0.31116  -0.30808
 Alpha  occ. eigenvalues --   -0.30528  -0.29428  -0.28703
 Alpha virt. eigenvalues --    0.00908   0.01261   0.01366   0.01830   0.02184
 Alpha virt. eigenvalues --    0.05051   0.06558   0.06839   0.07254   0.08303
 Alpha virt. eigenvalues --    0.08854   0.09280   0.09367   0.09896   0.10460
 Alpha virt. eigenvalues --    0.10877   0.11126   0.11567   0.11986   0.12109
 Alpha virt. eigenvalues --    0.12741   0.13002   0.13670   0.13802   0.14025
 Alpha virt. eigenvalues --    0.14499   0.14825   0.15128   0.15505   0.15564
 Alpha virt. eigenvalues --    0.15852   0.16057   0.16116   0.16587   0.17197
 Alpha virt. eigenvalues --    0.17359   0.17662   0.17986   0.18329   0.18693
 Alpha virt. eigenvalues --    0.18908   0.19002   0.19256   0.19736   0.19999
 Alpha virt. eigenvalues --    0.20198   0.20475   0.21455   0.21736   0.22214
 Alpha virt. eigenvalues --    0.22822   0.22957   0.23345   0.23669   0.24282
 Alpha virt. eigenvalues --    0.24641   0.24758   0.25370   0.25536   0.26169
 Alpha virt. eigenvalues --    0.26329   0.26591   0.26791   0.27101   0.27430
 Alpha virt. eigenvalues --    0.27925   0.28343   0.28974   0.29218   0.29565
 Alpha virt. eigenvalues --    0.30079   0.30219   0.30603   0.30918   0.31307
 Alpha virt. eigenvalues --    0.31582   0.32213   0.32483   0.32720   0.33411
 Alpha virt. eigenvalues --    0.33770   0.34199   0.34398   0.34622   0.34945
 Alpha virt. eigenvalues --    0.36276   0.36497   0.36734   0.36768   0.37108
 Alpha virt. eigenvalues --    0.37510   0.37982   0.38161   0.38500   0.38876
 Alpha virt. eigenvalues --    0.39244   0.39465   0.39659   0.39886   0.40168
 Alpha virt. eigenvalues --    0.40642   0.40783   0.41271   0.41420   0.41570
 Alpha virt. eigenvalues --    0.42314   0.42424   0.42809   0.43111   0.43438
 Alpha virt. eigenvalues --    0.43650   0.43973   0.44355   0.44757   0.45176
 Alpha virt. eigenvalues --    0.45396   0.45670   0.45862   0.46098   0.46435
 Alpha virt. eigenvalues --    0.46712   0.46959   0.47173   0.47457   0.47592
 Alpha virt. eigenvalues --    0.47778   0.48076   0.48406   0.48678   0.48799
 Alpha virt. eigenvalues --    0.49007   0.49530   0.50133   0.50203   0.50584
 Alpha virt. eigenvalues --    0.50687   0.50992   0.51222   0.51356   0.51375
 Alpha virt. eigenvalues --    0.51887   0.52139   0.52438   0.52643   0.53224
 Alpha virt. eigenvalues --    0.53471   0.53951   0.53974   0.54685   0.54835
 Alpha virt. eigenvalues --    0.54970   0.55425   0.55889   0.56078   0.56344
 Alpha virt. eigenvalues --    0.56996   0.57078   0.57410   0.57831   0.58124
 Alpha virt. eigenvalues --    0.58282   0.58726   0.59270   0.59529   0.60196
 Alpha virt. eigenvalues --    0.60624   0.61019   0.61547   0.61866   0.62467
 Alpha virt. eigenvalues --    0.62971   0.63352   0.64251   0.64445   0.64811
 Alpha virt. eigenvalues --    0.65238   0.66037   0.66136   0.67041   0.67668
 Alpha virt. eigenvalues --    0.67960   0.69393   0.69508   0.69955   0.70311
 Alpha virt. eigenvalues --    0.70527   0.71909   0.72096   0.72492   0.72976
 Alpha virt. eigenvalues --    0.73262   0.73720   0.74430   0.75058   0.75426
 Alpha virt. eigenvalues --    0.76208   0.76853   0.77092   0.77457   0.78625
 Alpha virt. eigenvalues --    0.78805   0.79495   0.79792   0.80010   0.80726
 Alpha virt. eigenvalues --    0.81587   0.82102   0.82718   0.82995   0.83722
 Alpha virt. eigenvalues --    0.84482   0.84709   0.85498   0.85711   0.86368
 Alpha virt. eigenvalues --    0.86713   0.87758   0.88319   0.88784   0.89257
 Alpha virt. eigenvalues --    0.90009   0.90549   0.90620   0.90904   0.91520
 Alpha virt. eigenvalues --    0.91919   0.92336   0.92752   0.92883   0.93440
 Alpha virt. eigenvalues --    0.93864   0.95124   0.95648   0.96073   0.96667
 Alpha virt. eigenvalues --    0.97398   0.97557   0.98078   0.98606   0.99026
 Alpha virt. eigenvalues --    0.99270   0.99628   1.01405   1.01751   1.02527
 Alpha virt. eigenvalues --    1.02727   1.03012   1.03762   1.04020   1.05264
 Alpha virt. eigenvalues --    1.05362   1.06288   1.06555   1.07191   1.07597
 Alpha virt. eigenvalues --    1.08320   1.08804   1.09291   1.09449   1.10506
 Alpha virt. eigenvalues --    1.11528   1.11709   1.12211   1.12633   1.13036
 Alpha virt. eigenvalues --    1.13838   1.14531   1.15117   1.15201   1.16359
 Alpha virt. eigenvalues --    1.16678   1.17180   1.18019   1.18156   1.18744
 Alpha virt. eigenvalues --    1.19180   1.19514   1.19991   1.20914   1.21397
 Alpha virt. eigenvalues --    1.21839   1.22421   1.23211   1.23238   1.24194
 Alpha virt. eigenvalues --    1.24456   1.25614   1.26009   1.26355   1.26806
 Alpha virt. eigenvalues --    1.27595   1.28028   1.28285   1.29034   1.29525
 Alpha virt. eigenvalues --    1.29769   1.30569   1.30990   1.31070   1.31779
 Alpha virt. eigenvalues --    1.32135   1.32421   1.32841   1.33867   1.34133
 Alpha virt. eigenvalues --    1.34736   1.35198   1.35568   1.35678   1.36433
 Alpha virt. eigenvalues --    1.36919   1.38009   1.38206   1.38576   1.39054
 Alpha virt. eigenvalues --    1.39921   1.40373   1.41167   1.42446   1.43261
 Alpha virt. eigenvalues --    1.43923   1.44209   1.45275   1.45485   1.46235
 Alpha virt. eigenvalues --    1.47172   1.47672   1.48127   1.49034   1.50423
 Alpha virt. eigenvalues --    1.50943   1.51371   1.51845   1.52258   1.52517
[...]
 001402,-0.00018062,-0.00012519,-0.00008235,-0.00007580,0.00018101,-0.0
 0010326,0.00005425,0.00014971,-0.00004862,0.00005696,-0.00009589,0.000
 01008,0.00008264,-0.00024575,0.00047869,-0.00016884,-0.00005815,-0.000
 30762,0.00017660,0.00020591,-0.00000816,-0.00003666,0.00001346,-0.0000
 3407,0.00001391,-0.00003934,0.00001712,0.00001399,0.00001197,-0.015532
 32,0.00999794,0.01701030,0.17783512,-0.00000838,0.00000633,-0.00001065
 ,0.00000110,-0.00001447,0.00001456,0.00001603,0.00002597,0.00001456,-0
 .00000514,-0.00000920,-0.00000733,0.00000012,-0.00000130,-0.00000113,-
 0.00000526,-0.00000939,-0.00000118,0.00000399,-0.00000045,0.00000102,-
 0.00000856,-0.00000554,-0.00000802,-0.00001575,0.00003167,-0.00002734,
 0.00038847,-0.00001837,0.00007719,-0.00001938,0.00011740,-0.00002583,0
 .00002569,-0.00008085,-0.00007450,0.00001602,-0.00003598,0.00000826,-0
 .00001569,-0.00003099,0.00000445,0.00001161,0.00000506,0.00001298,-0.0
 0003372,-0.00004220,0.00001409,0.00067342,-0.00089673,0.00100769,-0.00
 019164,0.00036421,-0.00034685,-0.00003961,-0.00001404,0.00028397,0.000
 04822,0.00001498,-0.00010016,-0.00036548,0.00037649,-0.00032669,0.0004
 7299,0.00009614,0.00099810,-0.00155373,-0.00040848,0.00288817,0.000659
 86,-0.00040805,-0.00033472,0.00006927,-0.00008230,-0.00000264,0.000045
 60,0.00001162,-0.00006059,0.05781433,-0.07541482,-0.06307477,-0.000006
 41,0.00000654,0.00000184,-0.00000109,-0.00000144,0.00000400,0.00000122
 ,-0.00000823,-0.00000422,0.00000092,-0.00000386,0.00000540,0.00000208,
 0.00000688,0.00000065,-0.00000519,-0.00000156,0.00000011,-0.00000259,-
 0.00000019,-0.00000096,-0.00000096,-0.00000036,-0.00000167,0.00000113,
 -0.00000233,0.00000480,0.00000476,-0.00005867,-0.00000802,-0.00000852,
 0.00001253,0.00001453,-0.00001384,-0.00000333,-0.00003431,-0.00006802,
 0.00008664,0.00003542,-0.00002634,-0.00001488,0.00000616,-0.00000298,0
 .00000340,0.00000433,-0.00000226,-0.00000543,0.00000204,0.00000125,0.0
 0000544,0.00001818,0.00001856,-0.00002989,-0.00003178,-0.00000290,-0.0
 0000441,0.00000636,-0.00017008,0.00029717,0.00029832,-0.00019853,0.000
 10742,0.00003550,-0.00038479,-0.00007968,-0.00016793,-0.00026043,0.000
 07382,0.00019439,-0.00010015,0.00018441,-0.00014051,0.00002720,0.00011
 136,-0.00013850,0.00014390,-0.00094697,0.00017174,-0.00025441,0.000355
 68,0.00000794,-0.00000862,0.00001201,-0.00000265,-0.00002115,0.0000001
 1,-0.00002331,0.00002351,-0.00001928,0.00000854,-0.01171524,0.00631969
 ,0.01376672,-0.06522981,0.07882386,0.00002164,-0.00000563,0.00002297,-
 0.00000962,0.00000853,-0.00004290,-0.00001563,-0.00002940,-0.00001225,
 0.00000831,0.00000137,0.00000664,0.00000165,-0.00000453,0.00000405,0.0
 0000437,0.00000231,0.00000022,-0.00000216,-0.00000326,-0.00000690,0.00
 001604,0.00000696,0.00000080,-0.00000580,0.00003999,0.00004114,-0.0008
 0710,-0.00011671,0.00038103,0.00000879,-0.00007849,-0.00001200,-0.0000
 0208,0.00004408,-0.00002120,-0.00000755,-0.00002173,0.00001133,0.00001
 488,0.00003299,0.00001463,-0.00000897,0.00003166,0.00001036,0.00000439
 ,0.00004862,-0.00002861,-0.00012259,0.00001438,0.00108497,0.00233446,-
 0.00087588,0.00107484,0.00001542,0.00031385,-0.00051160,-0.00005899,0.
 00008810,0.00001753,-0.00098306,-0.00161040,-0.00010838,-0.00322719,0.
 00045698,-0.00491655,0.02049526,-0.00943621,-0.02080504,0.00076262,0.0
 0096848,0.00033831,0.00021114,-0.00014385,-0.00011811,-0.00001993,0.00
 004616,0.00005455,0.12207700,-0.06090893,-0.17174573,0.00001144,-0.000
 01269,-0.00000508,0.00000038,0.00000185,-0.00000350,-0.00000498,0.0000
 0391,0.00000087,0.00000364,0.00000302,0.00000170,-0.00000794,0.0000001
 5,0.00000490,-0.00000120,0.00000382,0.00000046,0.00000099,0.00000305,0
 .00000106,0.00000116,0.00000181,0.00000447,-0.00000411,0.00000263,-0.0
 0000525,-0.00002261,0.00002407,-0.00000174,0.00001132,-0.00000537,-0.0
 0001367,0.00028689,-0.00004656,0.00009145,-0.00008229,-0.00001847,0.00
 003022,0.00000656,0.00000929,-0.00000415,0.00000738,0.00000513,0.00000
 308,0.00001314,0.00000853,0.00000665,0.00000824,-0.00001963,-0.0000014
 6,0.00003335,0.00000368,0.00005452,-0.00004145,0.00008498,0.00001661,0
 .00117888,0.00016111,-0.00148074,-0.00026728,0.00007765,0.00026185,-0.
 00045710,-0.00049908,0.00023346,-0.00030861,0.00004518,0.00015784,-0.0
 0001189,0.00015529,0.00008588,-0.00010299,-0.00004853,0.00015808,-0.00
 009113,0.00028375,0.00024091,-0.00002506,0.00011024,-0.00013063,-0.000
 02447,-0.00001714,-0.00000125,0.00002407,0.00000320,0.00000170,-0.0000
 4416,0.00005910,0.00000747,-0.00232624,0.00160646,0.00178554,-0.133344
 52,0.06660294,0.18820717,-0.00001503,0.00000330,-0.00001370,0.00000657
 ,-0.00000073,0.00002654,0.00001754,0.00001924,0.00001389,-0.00000045,-
 0.00000732,-0.00000370,-0.00000057,-0.00000339,-0.00000281,-0.00000453
 ,-0.00000948,-0.00000012,0.00000484,0.00000055,0.00000049,-0.00000641,
 -0.00000408,-0.00000759,-0.00005735,-0.00001907,-0.00003025,0.00046182
 ,0.00016332,-0.00006487,0.00002638,0.00008806,0.00000245,0.00003009,-0
 .00005641,0.00000565,0.00001904,-0.00002737,-0.00000048,-0.00001369,-0
 .00004490,-0.00001260,0.00000077,-0.00002226,-0.00000228,-0.00000475,-
 0.00002684,-0.00001021,0.00022019,-0.00003683,-0.00044041,-0.00200143,
 0.00134871,-0.00349895,-0.00062755,-0.00073848,-0.00018691,0.00003841,
 0.00008791,-0.00001828,-0.00016617,0.00002872,-0.00023556,-0.00001065,
 -0.00045961,0.00018182,-0.00435783,0.01221336,-0.00143269,0.00002688,0
 .00078150,-0.00067527,-0.00074036,-0.00052039,0.00006335,0.00013835,0.
 00016969,0.00006287,-0.05930106,0.05602763,-0.01134657,-0.00000521,0.0
 0000757,0.00000371,-0.00000019,0.00000007,0.00000346,0.00000117,-0.000
 00412,-0.00000200,-0.00000007,-0.00000565,0.00000178,0.00000137,0.0000
 0569,0.00000113,-0.00000494,-0.00000055,0.00000050,-0.00000278,0.00000
 032,-0.00000072,-0.00000132,0.00000031,-0.00000133,0.00000101,-0.00000
 306,0.00000432,0.00000496,-0.00003278,-0.00000589,-0.00000875,0.000016
 88,0.00002345,-0.00010309,-0.00001159,0.00000303,-0.00000584,0.0000487
 6,0.00000233,-0.00002756,-0.00000700,0.00001067,-0.00000769,0.00000134
 ,0.00000024,-0.00000716,-0.00000366,0.00000023,-0.00000185,0.00001080,
 0.00001354,-0.00001536,-0.00000155,0.00003053,0.00003254,0.00001063,-0
 .00003782,-0.00001419,0.00004200,-0.00005533,0.00013871,-0.00000182,0.
 00020529,-0.00039854,0.00018936,0.00020365,0.00010191,-0.00014962,0.00
 034359,-0.00000552,-0.00033565,-0.00053271,0.00036426,-0.00018035,0.00
 005258,-0.00001129,-0.00005631,-0.00008953,0.00061415,-0.00025832,0.00
 014960,-0.00001471,0.00009176,-0.00001377,0.00004813,-0.00003253,0.000
 05181,-0.00000903,-0.00001224,0.00000315,0.00741686,-0.02608360,0.0060
 4957,-0.00440334,0.01995093,-0.00563824,0.06262687,0.00001134,-0.00000
 375,0.00001005,-0.00001213,0.00000367,-0.00001288,-0.00001402,-0.00002
 268,-0.00001612,0.00000850,0.00000673,0.00000655,-0.00000025,-0.000000
 04,0.00000208,0.00000597,0.00000487,0.00000037,-0.00000273,0.00000009,
 -0.00000415,0.00001033,0.00000157,0.00000817,0.00002820,0.00000036,0.0
 0001761,-0.00030336,-0.00008329,-0.00001031,-0.00000594,-0.00006531,-0
 .00000601,-0.00000147,0.00004240,0.00000307,-0.00000966,0.00000301,0.0
 0000658,0.00001033,0.00002755,0.00000611,-0.00000396,0.00001685,-0.000
 00426,0.00000481,0.00002403,-0.00000017,-0.00000640,0.00009621,0.00023
 573,-0.00024441,0.00132763,0.00026888,-0.00004920,0.00009698,-0.000422
 25,0.00002763,0.00014693,0.00001382,0.00001041,-0.00028780,-0.00011990
 ,0.00024627,-0.00011349,-0.00004865,0.00065113,-0.00229997,-0.00071904
 ,-0.00148071,0.00010093,-0.00204846,-0.00059142,-0.00045692,-0.0000847
 2,-0.00003786,0.00003931,0.00006686,0.05848453,-0.29176275,0.05325417,
 0.00000715,-0.00000803,-0.00000154,0.00000186,0.00000219,-0.00000467,-
 0.00000275,0.00000691,0.00000522,-0.00000228,0.00000692,-0.00000817,-0
 .00000496,-0.00000367,0.00000128,0.00000276,0.00000278,-0.00000035,0.0
 0000189,0.00000219,0.00000140,0.00000017,0.00000048,0.00000258,-0.0000
 0337,0.00000437,-0.00000567,-0.00000999,0.00003171,0.00001675,0.000013
 26,-0.00000637,-0.00001596,0.00004624,0.00000385,-0.00000466,-0.000000
 31,-0.00003089,0.00000746,0.00001680,0.00000750,-0.00000710,0.00000589
 ,0.00000210,0.00000054,0.00000666,0.00000351,0.00000214,-0.00000161,-0
 .00000843,-0.00001080,0.00000324,0.00000872,0.00004230,-0.00001666,0.0
 0003202,-0.00001222,-0.00011447,0.00014393,0.00011694,-0.00025907,0.00
 012503,0.00028599,0.00031047,-0.00000326,0.00025727,-0.00025424,0.0003
 0053,-0.00006126,-0.00029378,0.00065743,-0.00034227,0.00019532,-0.0001
 4399,0.00020704,-0.00017155,0.00016198,0.00004932,0.00055090,-0.000186
 46,-0.00001048,-0.00000480,-0.00001061,-0.00001051,0.00003957,0.000010
 04,0.00004053,-0.00001874,0.00000459,-0.00001637,0.00436136,-0.0156680
 1,0.00308072,0.00113361,-0.00873111,0.00210712,-0.06220043,0.31625570,
 -0.00001315,0.00000107,-0.00000938,0.00000754,0.00001145,0.00002285,0.
 00001086,0.00000680,0.00001030,-0.00000034,-0.00000376,-0.00000119,-0.
 00000079,-0.00000359,-0.00000181,-0.00000301,-0.00000406,0.00000017,0.
 00000339,0.00000026,0.00000201,-0.00000277,0.00000052,-0.00000645,-0.0
 0009210,-0.00004256,-0.00001694,0.00018573,0.00014270,0.00028154,0.000
 03393,0.00005171,0.00002605,0.00001898,-0.00002162,-0.00000162,-0.0000
 0146,-0.00002367,0.00001130,-0.00000449,-0.00002080,0.00000633,0.00001
 124,-0.00001182,-0.00000991,0.00000835,-0.00001214,-0.00003810,0.00063
 668,-0.00042243,0.00068474,-0.00304604,0.00169939,-0.00720215,-0.00087
 343,-0.00127165,-0.00019288,0.00000079,-0.00005125,0.00012513,-0.00011
 906,0.00023630,0.00004068,-0.00063637,0.00039523,0.00063448,-0.0067981
 0,0.02841690,-0.00610701,-0.00012586,0.00120188,0.00066855,0.00024514,
 -0.00042234,0.00002154,0.00021193,0.00024228,0.00000901,-0.01107586,0.
 05093906,-0.05637849,-0.00000302,0.00000591,0.00000300,-0.00000070,0.0
 0000010,0.00000222,0.00000131,-0.00000077,-0.00000183,0.00000251,-0.00
 000678,0.00000388,0.00000090,0.00000196,0.00000022,-0.00000223,-0.0000
 0022,0.00000064,-0.00000181,-0.00000049,-0.00000027,-0.00000084,0.0000
 0072,-0.00000114,0.00000188,-0.00000298,0.00000317,0.00000052,0.000000
 43,-0.00001620,-0.00002214,0.00001423,0.00002568,0.00011781,-0.0000405
 8,0.00004795,-0.00000843,-0.00000438,0.00000090,-0.00000008,0.00000048
 ,0.00000100,-0.00000417,-0.00000005,0.00000215,-0.00000844,-0.00000027
 ,-0.00000308,0.00000113,0.00001341,0.00000825,-0.00005215,-0.00001289,
 0.00002014,0.00006368,-0.00003154,-0.00005386,0.00012741,-0.00039489,0
 .00011882,0.00056119,-0.00027015,-0.00035005,-0.00009751,-0.00019372,0
 .00016371,0.00039596,-0.00000582,0.00032596,-0.00029886,-0.00065784,-0
 .00051824,-0.00000575,-0.00009966,0.00019499,-0.00020831,0.00012606,0.
 00010640,0.00017218,0.00007652,0.00001493,-0.00002536,0.00014464,0.000
 00654,0.00005014,-0.00004701,0.00006383,-0.00001035,-0.00000757,0.0000
 1150,0.00086723,-0.00155834,-0.00050050,0.00314409,-0.02177734,0.00531
 264,0.01665647,-0.05615165,0.06235400,-0.00007797,-0.00001145,-0.00005
 853,0.00011282,0.00001664,0.00004971,0.00001882,0.00009695,0.00008120,
 -0.00007422,-0.00000921,-0.00003933,-0.00001243,0.00003213,-0.00000496
 ,-0.00002193,0.00001348,0.00000531,-0.00001215,0.00001856,0.00005254,-
 0.00007254,0.00002066,-0.00002747,-0.00016128,-0.00002543,-0.00009846,
 0.00124020,0.00007592,0.00036463,-0.00009136,0.00010145,0.00006097,-0.
 00014045,-0.00007611,-0.00009053,-0.00002641,0.00008516,-0.00002385,-0
 .00001524,-0.00001502,0.00000193,0.00001779,0.00003021,0.00006538,-0.0
 0011119,-0.00005140,0.00006031,-0.00187914,0.00015650,0.00088601,0.001
 03694,0.00007634,0.00037139,0.00198589,0.00245361,-0.00765935,-0.04748
 825,0.01403424,-0.01364025,-0.76483799,-0.02848064,-0.11147866,-0.0453
 8299,-0.01843582,-0.00838178,0.00221900,-0.00442621,-0.00652174,-0.001
 77805,0.00039384,0.00279597,-0.00087263,-0.00004315,-0.00030057,-0.001
 83377,0.00031255,0.00267132,-0.00089162,-0.00011221,-0.00025872,-0.000
 04790,0.00005091,0.00000503,-0.00001425,-0.00001142,0.00002959,0.00003
 266,-0.00001953,-0.00001881,0.00003643,-0.00005706,0.00006159,0.000043
 90,-0.00001186,-0.00002059,0.00001386,-0.00002827,-0.00000047,0.000002
 12,-0.00002719,-0.00000818,0.00001540,-0.00001457,-0.00001847,0.000039
 92,-0.00004317,0.00002950,0.00000810,-0.00005440,-0.00012999,-0.000089
 84,-0.00002523,0.00005747,0.00007641,0.00001400,-0.00001411,0.00006367
 ,0.00001019,-0.00005457,-0.00000084,-0.00003531,0.00002133,-0.00001242
 ,-0.00003688,-0.00000265,-0.00000061,-0.00002097,-0.00002496,0.0000901
 7,-0.00001892,0.00004578,-0.00231784,0.00434632,0.00003928,0.00155070,
 0.00000315,0.00073257,-0.00201396,-0.00410762,0.00137256,0.00152518,0.
 00006586,0.00071564,-0.00077482,-0.00077962,0.00015032,0.00034837,0.00
 016352,0.00004725,0.00011164,0.00012440,-0.00010331,0.00002223,0.00006
 153,-0.00001620,0.00042170,-0.00014076,0.00057937,-0.00011385,-0.00002
 236,0.00084011,0.00013185,-0.00011658,-0.00005608,0.00035828,-0.000169
 40,0.00013929,-0.00097543,0.00082586,0.00000382,-0.00009361,0.00031006
 ,0.00077846,0.00043047,0.00032451,0.00051350,0.00001341,-0.00007406,0.
 00000404,0.86026905,-0.00000870,0.00001944,-0.00002853,-0.00004967,-0.
 00005378,0.00010307,-0.00002616,-0.00000617,-0.00005630,0.00000436,0.0
 0002873,0.00001645,0.00000240,0.00002000,-0.00000150,0.00000888,0.0000
 2839,0.00000301,-0.00000819,0.00000915,-0.00000320,-0.00001156,-0.0000
 1489,0.00004267,-0.00009080,-0.00002109,-0.00009530,0.00000369,-0.0001
 1958,0.00019936,-0.00005536,-0.00007412,-0.00004555,-0.00006541,0.0000
 8731,-0.00001872,-0.00003683,0.00006654,-0.00002152,0.00001183,0.00006
 463,0.00001640,-0.00000627,0.00004830,0.00001406,-0.00002292,0.0000246
 9,0.00007207,-0.00001218,0.00152238,-0.00032186,0.00006846,-0.00071293
 ,0.00018990,0.00075238,-0.00366248,0.00398228,0.03671614,0.01317403,0.
 00739943,-0.02810980,-0.11020743,0.00183696,-0.04227454,0.00914358,-0.
 00338777,-0.00057115,-0.00643687,-0.00426547,-0.00177387,0.00075635,0.
 00216130,0.00028612,0.00077715,-0.00027289,0.00137091,0.00023374,-0.00
 152092,-0.00065505,0.00067526,-0.00015039,-0.00000577,0.00000214,0.000
 00476,0.00001467,0.00000261,-0.00001655,0.00000160,0.00001412,0.000028
 51,-0.00003186,0.00004034,-0.00006345,0.00000445,-0.00001784,-0.000009
 08,0.00001765,0.00000007,-0.00000317,0.00001212,-0.00000207,0.00000112
 ,0.00000247,-0.00000771,0.00000156,-0.00000265,0.00000707,-0.00001541,
 -0.00000547,0.00004898,0.00009653,0.00004570,0.00002334,-0.00001159,-0
 .00010038,-0.00005822,-0.00006884,0.00004222,-0.00004464,-0.00001237,0
 .00002931,-0.00000072,-0.00000839,0.00001626,-0.00000771,-0.00000424,0
 .00002383,-0.00000635,-0.00000038,0.00002611,-0.00003994,-0.00001376,0
 .00474039,-0.00361384,0.00110671,-0.00189978,0.00533208,-0.00127954,-0
 .00392063,-0.00317574,-0.00021598,0.00191926,0.00538694,-0.00066741,-0
 .00053003,-0.00080168,0.00012636,0.00019767,0.00001771,-0.00003830,0.0
 0017023,0.00026212,-0.00011212,0.00000707,0.00020377,0.00010977,0.0001
 5909,-0.00023649,-0.00026005,0.00000645,-0.00051779,0.00021856,-0.0001
 4972,0.00025407,0.00000893,-0.00016607,0.00003700,0.00002109,0.0004994
 9,-0.00067985,-0.00004335,0.00012111,-0.00043070,0.00013546,-0.0000244
 0,-0.00007207,0.00043006,0.00004958,0.00018321,-0.00015339,0.03328332,
 0.09252743,-0.00001521,-0.00001142,-0.00000703,0.00002797,0.00002880,-
 0.00001058,0.00000126,0.00000789,0.00002616,-0.00001165,-0.00000365,-0
 .00001150,-0.00000370,0.00000188,0.00000152,-0.00000276,-0.00000285,0.
 00000124,-0.00000311,0.00000361,0.00000797,-0.00000406,0.00000767,-0.0
 0001026,-0.00003426,-0.00001531,-0.00001838,0.00021893,0.00003874,0.00
 008300,-0.00000699,0.00002896,0.00002939,-0.00002922,-0.00003142,-0.00
 003593,0.00000304,0.00001567,0.00000314,-0.00000168,-0.00000917,0.0000
 0025,0.00000297,-0.00000470,0.00000941,-0.00000893,-0.00000893,0.00001
 030,-0.00046401,-0.00015810,0.00042317,0.00084366,0.00012397,0.0001774
 3,-0.00096193,0.00414026,-0.00634542,-0.01869455,0.00460320,0.02341338
 ,-0.11216304,0.00175463,-0.08646008,-0.00643045,-0.00058180,0.02627004
 ,-0.00044573,-0.00413000,-0.00385884,-0.00079750,0.00036917,0.00156092
 ,-0.00105839,0.00012635,-0.00062323,-0.00127669,-0.00001204,0.00212921
 ,-0.00094182,-0.00059305,-0.00051996,-0.00000466,0.00000792,0.00000251
 ,-0.00000852,-0.00000240,0.00000869,0.00000748,0.00000094,-0.00000795,
 0.00001802,-0.00002253,0.00002907,0.00000543,-0.00000059,-0.00000050,-
 0.00000078,-0.00000472,-0.00000007,-0.00000093,-0.00000313,-0.00000137
 ,0.00000377,-0.00000175,-0.00000147,0.00000576,-0.00000812,0.00000653,
 -0.00000253,0.00000038,-0.00005078,-0.00003180,-0.00001620,0.00001136,
 0.00004583,0.00001818,0.00001589,-0.00000181,0.00001117,-0.00000374,-0
 .00000718,-0.00000892,0.00000456,-0.00000368,-0.00000351,-0.00000052,-
 0.00000149,-0.00000250,-0.00000272,0.00000748,0.00000374,0.00000808,0.
 00182240,-0.00237102,-0.00030278,0.00080268,-0.00090764,-0.00078144,0.
 00307243,0.00331608,-0.00102021,0.00021572,-0.00105612,-0.00087851,-0.
 00040537,-0.00040572,-0.00020184,-0.00003881,0.00001858,0.00001713,0.0
 0004474,-0.00005365,-0.00001327,0.00020568,-0.00008088,0.00005175,0.00
 036102,-0.00006355,0.00038737,0.00033189,-0.00007458,0.00057152,0.0000
 8677,-0.00002546,-0.00003138,0.00003348,-0.00003833,0.00001330,-0.0006
 2438,0.00055559,-0.00028090,0.00031915,0.00041492,0.00049702,0.0003917
 7,0.00021868,0.00024490,0.00018889,0.00003591,0.00007390,0.13541942,-0
 .00513908,0.04539054\\-0.00000212,0.00000147,0.00000173,0.00000042,-0.
 00000546,-0.00000138,-0.00000399,0.00000042,-0.00000297,-0.00000140,0.
 00000285,-0.00000483,0.00000319,0.00000187,-0.00000443,0.00000256,0.00
 000441,-0.00000053,0.00000060,0.00000104,0.00000326,-0.00000012,-0.000
 00256,0.00000095,-0.00000029,-0.00000474,-0.00000578,0.00000262,0.0000
 0430,0.00000191,-0.00000651,-0.00000655,-0.00000034,0.00000156,-0.0000
 0004,-0.00000539,-0.00000089,0.00000049,-0.00000580,0.00000102,0.00000
 268,0.00000057,0.00000100,0.00000394,0.00000109,-0.00000069,-0.0000016
 3,0.00000156,0.00000041,0.00000203,-0.00000370,0.00000131,0.00000145,0
 .00000271,0.00000177,-0.00000024,0.00000182,0.00000236,-0.00000160,0.0
 0000178,0.00000033,0.00000244,0.00001219,0.00000122,-0.00000135,-0.000
 00175,0.00000061,0.,-0.00000045,0.00000156,0.00000047,-0.00000005,0.00
 000005,-0.00000186,-0.00000012,0.00000200,0.00000062,0.00000271,-0.000
 00231,-0.00000169,-0.00000282,0.00000083,-0.00000075,0.00000011,0.0000
 0003,0.00000074,-0.00000236,-0.00000059,-0.00000021,-0.00000029,0.0000
 0145,-0.00000207,0.00000128,-0.00000067,-0.00000047,-0.00000229,-0.000
 00009,0.00000169,-0.00000257,0.00000141,0.00000176,-0.00000208,0.00000
 169,0.00000123,-0.00000041,0.00000067,0.,0.00000010,0.00000422,0.00000
 396,0.00000253,0.00000077,0.00000112,-0.00000254,-0.00000044,0.0000002
 2,-0.00000022,-0.00000141,-0.00000090,-0.00000072,-0.00000071,0.000000
 46,-0.00000220,-0.00000018,0.00000143,-0.00000210,0.00000094,0.0000012
 0,-0.00000095,0.00000012,0.00000023,-0.00000019,0.00000176,-0.00000223
 ,0.00000066,-0.00000116,-0.00000262,0.00000243,-0.00000094,0.00000016,
 0.00000202,-0.00000126,0.00000138,0.00000071,-0.00000120,0.00000046,-0
 .00000072,0.00000155,-0.00000009,0.00000177,-0.00000058,0.00000077,-0.
 00000010,0.00000035,-0.00000355,0.00000424,0.00000006,-0.00000120,0.00
 000242,-0.00000350,0.00000055,0.00000127,-0.00000100,-0.00000295,-0.00
 000014,-0.00000425,-0.00000220,0.00000317,0.00000187,0.00000245,0.0000
 0154,-0.00000149,-0.00000243,0.00000129,-0.00000057,-0.00000051,0.0000
 0030,-0.00000089,0.00000026,0.00000263,-0.00000305,-0.00000067,-0.0000
 0053\\\@
 The archive entry for this job was punched.


 There was a great rattling of the words for the fewness of ideas.
                   -- Charles Baxter in Gryphon
 Job cpu time:       6 days 17 hours 26 minutes 54.1 seconds.
 Elapsed time:       0 days  8 hours  4 minutes 25.1 seconds.
 File lengths (MBytes):  RWF=   4738 Int=      0 D2E=      0 Chk=     92 Scr=      1
 Normal termination of Gaussian 16 at Sat Jan 11 20:10:43 2025.
