 Entering Gaussian System, Link 0=g16
 Input=gjfs/data_set_3-dormant-Mix_18_St2_opt.gjf
 Output=gjfs/data_set_3-dormant-Mix_18_St2_opt.log
 Initial command:
 /usr/local/intel/g16/l1.exe "/scr/Gau-93007.inp" -scrdir="/scr/"
 Entering Link 1 = /usr/local/intel/g16/l1.exe PID=     93009.
  
 Copyright (c) 1988-2019, Gaussian, Inc.  All Rights Reserved.
  
 This is part of the Gaussian(R) 16 program.  It is based on
 the Gaussian(R) 09 system (copyright 2009, Gaussian, Inc.),
 the Gaussian(R) 03 system (copyright 2003, Gaussian, Inc.),
 the Gaussian(R) 98 system (copyright 1998, Gaussian, Inc.),
 the Gaussian(R) 94 system (copyright 1995, Gaussian, Inc.),
 the Gaussian 92(TM) system (copyright 1992, Gaussian, Inc.),
 the Gaussian 90(TM) system (copyright 1990, Gaussian, Inc.),
 the Gaussian 88(TM) system (copyright 1988, Gaussian, Inc.),
 the Gaussian 86(TM) system (copyright 1986, Carnegie Mellon
 University), and the Gaussian 82(TM) system (copyright 1983,
 Carnegie Mellon University). Gaussian is a federally registered
 trademark of Gaussian, Inc.
  
 This software contains proprietary and confidential information,
 including trade secrets, belonging to Gaussian, Inc.
  
 This software is provided under written license and may be
 used, copied, transmitted, or stored only in accord with that
 written license.
  
 The following legend is applicable only to US Government
 contracts under FAR:
  
                    RESTRICTED RIGHTS LEGEND
  
 Use, reproduction and disclosure by the US Government is
 subject to restrictions as set forth in subparagraphs (a)
 and (c) of the Commercial Computer Software - Restricted
 Rights clause in FAR 52.227-19.
  
 Gaussian, Inc.
 340 Quinnipiac St., Bldg. 40, Wallingford CT 06492
  
  
 ---------------------------------------------------------------
 Warning -- This program may not be used in any manner that
 competes with the business of Gaussian, Inc. or will provide
 assistance to any competitor of Gaussian, Inc.  The licensee
 of this program is prohibited from giving any competitor of
 Gaussian, Inc. access to this program.  By using this program,
 the user acknowledges that Gaussian, Inc. is engaged in the
 business of creating and licensing software in the field of
 computational chemistry and represents and warrants to the
 licensee that it is not a competitor of Gaussian, Inc. and that
 it will not use this program in any manner prohibited above.
 ---------------------------------------------------------------
  

 Cite this work as:
 Gaussian 16, Revision C.01,
 M. J. Frisch, G. W. Trucks, H. B. Schlegel, G. E. Scuseria, 
 M. A. Robb, J. R. Cheeseman, G. Scalmani, V. Barone, 
 G. A. Petersson, H. Nakatsuji, X. Li, M. Caricato, A. V. Marenich, 
 J. Bloino, B. G. Janesko, R. Gomperts, B. Mennucci, H. P. Hratchian, 
 J. V. Ortiz, A. F. Izmaylov, J. L. Sonnenberg, D. Williams-Young, 
 F. Ding, F. Lipparini, F. Egidi, J. Goings, B. Peng, A. Petrone, 
 T. Henderson, D. Ranasinghe, V. G. Zakrzewski, J. Gao, N. Rega, 
 G. Zheng, W. Liang, M. Hada, M. Ehara, K. Toyota, R. Fukuda, 
 J. Hasegawa, M. Ishida, T. Nakajima, Y. Honda, O. Kitao, H. Nakai, 
 T. Vreven, K. Throssell, J. A. Montgomery, Jr., J. E. Peralta, 
 F. Ogliaro, M. J. Bearpark, J. J. Heyd, E. N. Brothers, K. N. Kudin, 
 V. N. Staroverov, T. A. Keith, R. Kobayashi, J. Normand, 
 K. Raghavachari, A. P. Rendell, J. C. Burant, S. S. Iyengar, 
 J. Tomasi, M. Cossi, J. M. Millam, M. Klene, C. Adamo, R. Cammi, 
 J. W. Ochterski, R. L. Martin, K. Morokuma, O. Farkas, 
 J. B. Foresman, and D. J. Fox, Gaussian, Inc., Wallingford CT, 2019.
 
 ******************************************
 Gaussian 16:  ES64L-G16RevC.01  3-Jul-2019
                10-Jan-2025 
 ******************************************
 %nprocshared=20
 Will use up to   20 processors via shared memory.
 %mem=30GB
 %chk=outputs/data_set_3-dormant-Mix_18_St2_opt.chk
 ----------------------------------
 #p M062X/DEF2TZVP opt freq pop=NBO
 ----------------------------------
 1/18=20,19=15,26=3,38=1/1,3;
 2/9=110,12=2,17=6,18=5,40=1/2;
 3/5=44,7=101,11=2,25=1,30=1,71=1,74=-55/1,2,3;
 4//1;
 5/5=2,38=5/2;
 6/7=2,8=2,9=2,10=2,28=1,40=1/1,7;
 7//1,2,3,16;
 1/18=20,19=15,26=3/3(2);
 2/9=110/2;
 99//99;
 2/9=110/2;
 3/5=44,7=101,11=2,25=1,30=1,71=1,74=-55/1,2,3;
 4/5=5,16=3,69=1/1;
 5/5=2,38=5/2;
 7//1,2,3,16;
 1/18=20,19=15,26=3/3(-5);
 2/9=110/2;
 6/7=2,8=2,9=2,10=2,19=2,28=1,40=1/1,7;
 99/9=1/99;
 Leave Link    1 at Fri Jan 10 10:01:18 2025, MaxMem=  4026531840 cpu:               1.0 elap:               0.1
 (Enter /usr/local/intel/g16/l101.exe)
 ---------------------------------
 data_set_3-dormant-Mix_18_St2_opt
 ---------------------------------
 Symbolic Z-matrix:
 Charge =  0 Multiplicity = 1
 C                    -2.55368  -3.26391   1.69351 
 C                    -2.02792  -2.2211    0.6854 
 C                    -3.1702   -1.51433  -0.03334 
 C                    -4.07879  -0.70403   0.67328 
 C                    -5.10142  -0.02225   0.00525 
 C                    -5.24012  -0.14499  -1.3873 
 C                    -4.34992  -0.95925  -2.10022 
 C                    -3.3228   -1.63717  -1.42363 
 C                    -1.06948  -1.23094   1.39072 
 C                    -0.49826  -0.15987   0.43762 
 C                    -1.32535   1.1084    0.3872 
 C                    -1.87864   1.54764  -0.8225 
 C                    -2.65453   2.71389  -0.87163 
 C                    -2.87487   3.4596    0.29505 
 C                    -2.31424   3.03041   1.51017 
 C                    -1.54736   1.85992   1.55379 
 O                     0.87197   0.11348   0.91656 
 N                     1.84467   0.28095  -0.16534 
 C                     2.69205  -0.97322  -0.20895 
 C                     3.8299   -0.74614  -1.24142 
 C                     4.55525   0.55338  -0.99063 
 C                     3.63939   1.75303  -1.02146 
 C                     2.49849   1.62661   0.0248 
 C                     1.45439   2.71057  -0.29585 
 C                     3.29852  -1.32955   1.18395 
 C                     1.79842  -2.13512  -0.72112 
 C                     3.05447   1.87774   1.44854 
 H                    -3.19919  -3.99481   1.19616 
 H                    -3.13938  -2.78163   2.4848 
 H                    -1.72214  -3.79872   2.16721 
 H                    -1.43868  -2.75574  -0.07398 
 H                    -3.9711   -0.5816    1.74742 
 H                    -5.78016   0.61375   0.56389 
 H                    -6.03039   0.38761  -1.90621 
 H                    -4.45069  -1.06492  -3.17583 
 H                    -2.63113  -2.26179  -1.98385 
 H                    -0.22807  -1.79693   1.80717 
 H                    -1.582    -0.75756   2.23644 
 H                    -0.41818  -0.571    -0.5712 
 H                    -1.71584   0.96819  -1.72667 
 H                    -3.087     3.03503  -1.81348 
 H                    -3.47362   4.36406   0.26033 
 H                    -2.4747    3.60755   2.41532 
 H                    -1.10356   1.53776   2.49155 
 H                     3.39983  -0.6943   -2.24781 
 H                     4.53092  -1.58346  -1.20338 
 H                     3.19172   1.82328  -2.02103 
 H                     4.20767   2.66517  -0.82358 
 H                     0.71333   2.79428   0.50117 
 H                     0.93172   2.47432  -1.22752 
 H                     2.5254   -1.14757   1.93669 
 H                     4.12307  -0.6413    1.39544 
 H                     1.02535  -2.32677   0.03063 
 H                     2.41177  -3.04151  -0.75859 
 H                     4.01515   1.38592   1.62184 
 H                     2.33416   1.5301    2.19297 
 O                     5.77539   0.62564  -0.76418 
 C                     1.15995  -1.91947  -2.10713 
 C                     3.83593  -2.76401   1.34121 
 H                     0.84885  -0.87796  -2.23714 
 H                     0.28043  -2.56239  -2.22877 
 H                     1.85563  -2.16849  -2.91582 
 H                     3.03279  -3.50769   1.33766 
 H                     4.36188  -2.85275   2.2978 
 H                     4.54981  -3.02707   0.55157 
 H                     1.95308   3.68092  -0.40389 
 H                     3.20658   2.9534    1.58921 
 
 ITRead=  0  0  0  0  0  0  0  0  0  0  0  0  0  0  0  0  0  0  0  0
 ITRead=  0  0  0  0  0  0  0  0  0  0  0  0  0  0  0  0  0  0  0  0
 ITRead=  0  0  0  0  0  0  0  0  0  0  0  0  0  0  0  0  0  0  0  0
 ITRead=  0  0  0  0  0  0  0
 MicOpt= -1 -1 -1 -1 -1 -1 -1 -1 -1 -1 -1 -1 -1 -1 -1 -1 -1 -1 -1 -1
 MicOpt= -1 -1 -1 -1 -1 -1 -1 -1 -1 -1 -1 -1 -1 -1 -1 -1 -1 -1 -1 -1
 MicOpt= -1 -1 -1 -1 -1 -1 -1 -1 -1 -1 -1 -1 -1 -1 -1 -1 -1 -1 -1 -1
 MicOpt= -1 -1 -1 -1 -1 -1 -1
 NAtoms=     67 NQM=       67 NQMF=       0 NMMI=      0 NMMIF=      0
                NMic=       0 NMicF=      0.
                    Isotopes and Nuclear Properties:
 (Nuclear quadrupole moments (NQMom) in fm**2, nuclear magnetic moments (NMagM)
  in nuclear magnetons)

  Atom         1           2           3           4           5           6           7           8           9          10
 IAtWgt=          12          12          12          12          12          12          12          12          12          12
 AtmWgt=  12.0000000  12.0000000  12.0000000  12.0000000  12.0000000  12.0000000  12.0000000  12.0000000  12.0000000  12.0000000
 NucSpn=           0           0           0           0           0           0           0           0           0           0
 AtZEff=  -0.0000000  -0.0000000  -0.0000000  -0.0000000  -0.0000000  -0.0000000  -0.0000000  -0.0000000  -0.0000000  -0.0000000
 NQMom=    0.0000000   0.0000000   0.0000000   0.0000000   0.0000000   0.0000000   0.0000000   0.0000000   0.0000000   0.0000000
 NMagM=    0.0000000   0.0000000   0.0000000   0.0000000   0.0000000   0.0000000   0.0000000   0.0000000   0.0000000   0.0000000
 AtZNuc=   6.0000000   6.0000000   6.0000000   6.0000000   6.0000000   6.0000000   6.0000000   6.0000000   6.0000000   6.0000000

  Atom        11          12          13          14          15          16          17          18          19          20
 IAtWgt=          12          12          12          12          12          12          16          14          12          12
 AtmWgt=  12.0000000  12.0000000  12.0000000  12.0000000  12.0000000  12.0000000  15.9949146  14.0030740  12.0000000  12.0000000
 NucSpn=           0           0           0           0           0           0           0           2           0           0
 AtZEff=  -0.0000000  -0.0000000  -0.0000000  -0.0000000  -0.0000000  -0.0000000  -0.0000000  -0.0000000  -0.0000000  -0.0000000
 NQMom=    0.0000000   0.0000000   0.0000000   0.0000000   0.0000000   0.0000000   0.0000000   2.0440000   0.0000000   0.0000000
 NMagM=    0.0000000   0.0000000   0.0000000   0.0000000   0.0000000   0.0000000   0.0000000   0.4037610   0.0000000   0.0000000
 AtZNuc=   6.0000000   6.0000000   6.0000000   6.0000000   6.0000000   6.0000000   8.0000000   7.0000000   6.0000000   6.0000000

  Atom        21          22          23          24          25          26          27          28          29          30
 IAtWgt=          12          12          12          12          12          12          12           1           1           1
 AtmWgt=  12.0000000  12.0000000  12.0000000  12.0000000  12.0000000  12.0000000  12.0000000   1.0078250   1.0078250   1.0078250
 NucSpn=           0           0           0           0           0           0           0           1           1           1
 AtZEff=  -0.0000000  -0.0000000  -0.0000000  -0.0000000  -0.0000000  -0.0000000  -0.0000000  -0.0000000  -0.0000000  -0.0000000
 NQMom=    0.0000000   0.0000000   0.0000000   0.0000000   0.0000000   0.0000000   0.0000000   0.0000000   0.0000000   0.0000000
 NMagM=    0.0000000   0.0000000   0.0000000   0.0000000   0.0000000   0.0000000   0.0000000   2.7928460   2.7928460   2.7928460
 AtZNuc=   6.0000000   6.0000000   6.0000000   6.0000000   6.0000000   6.0000000   6.0000000   1.0000000   1.0000000   1.0000000

  Atom        31          32          33          34          35          36          37          38          39          40
 IAtWgt=           1           1           1           1           1           1           1           1           1           1
 AtmWgt=   1.0078250   1.0078250   1.0078250   1.0078250   1.0078250   1.0078250   1.0078250   1.0078250   1.0078250   1.0078250
 NucSpn=           1           1           1           1           1           1           1           1           1           1
 AtZEff=  -0.0000000  -0.0000000  -0.0000000  -0.0000000  -0.0000000  -0.0000000  -0.0000000  -0.0000000  -0.0000000  -0.0000000
 NQMom=    0.0000000   0.0000000   0.0000000   0.0000000   0.0000000   0.0000000   0.0000000   0.0000000   0.0000000   0.0000000
 NMagM=    2.7928460   2.7928460   2.7928460   2.7928460   2.7928460   2.7928460   2.7928460   2.7928460   2.7928460   2.7928460
 AtZNuc=   1.0000000   1.0000000   1.0000000   1.0000000   1.0000000   1.0000000   1.0000000   1.0000000   1.0000000   1.0000000

  Atom        41          42          43          44          45          46          47          48          49          50
 IAtWgt=           1           1           1           1           1           1           1           1           1           1
 AtmWgt=   1.0078250   1.0078250   1.0078250   1.0078250   1.0078250   1.0078250   1.0078250   1.0078250   1.0078250   1.0078250
 NucSpn=           1           1           1           1           1           1           1           1           1           1
 AtZEff=  -0.0000000  -0.0000000  -0.0000000  -0.0000000  -0.0000000  -0.0000000  -0.0000000  -0.0000000  -0.0000000  -0.0000000
 NQMom=    0.0000000   0.0000000   0.0000000   0.0000000   0.0000000   0.0000000   0.0000000   0.0000000   0.0000000   0.0000000
 NMagM=    2.7928460   2.7928460   2.7928460   2.7928460   2.7928460   2.7928460   2.7928460   2.7928460   2.7928460   2.7928460
 AtZNuc=   1.0000000   1.0000000   1.0000000   1.0000000   1.0000000   1.0000000   1.0000000   1.0000000   1.0000000   1.0000000

  Atom        51          52          53          54          55          56          57          58          59          60
 IAtWgt=           1           1           1           1           1           1          16          12          12           1
 AtmWgt=   1.0078250   1.0078250   1.0078250   1.0078250   1.0078250   1.0078250  15.9949146  12.0000000  12.0000000   1.0078250
 NucSpn=           1           1           1           1           1           1           0           0           0           1
 AtZEff=  -0.0000000  -0.0000000  -0.0000000  -0.0000000  -0.0000000  -0.0000000  -0.0000000  -0.0000000  -0.0000000  -0.0000000
 NQMom=    0.0000000   0.0000000   0.0000000   0.0000000   0.0000000   0.0000000   0.0000000   0.0000000   0.0000000   0.0000000
 NMagM=    2.7928460   2.7928460   2.7928460   2.7928460   2.7928460   2.7928460   0.0000000   0.0000000   0.0000000   2.7928460
 AtZNuc=   1.0000000   1.0000000   1.0000000   1.0000000   1.0000000   1.0000000   8.0000000   6.0000000   6.0000000   1.0000000

  Atom        61          62          63          64          65          66          67
 IAtWgt=           1           1           1           1           1           1           1
 AtmWgt=   1.0078250   1.0078250   1.0078250   1.0078250   1.0078250   1.0078250   1.0078250
 NucSpn=           1           1           1           1           1           1           1
 AtZEff=  -0.0000000  -0.0000000  -0.0000000  -0.0000000  -0.0000000  -0.0000000  -0.0000000
 NQMom=    0.0000000   0.0000000   0.0000000   0.0000000   0.0000000   0.0000000   0.0000000
 NMagM=    2.7928460   2.7928460   2.7928460   2.7928460   2.7928460   2.7928460   2.7928460
 AtZNuc=   1.0000000   1.0000000   1.0000000   1.0000000   1.0000000   1.0000000   1.0000000
 Leave Link  101 at Fri Jan 10 10:01:19 2025, MaxMem=  4026531840 cpu:              24.0 elap:               1.2
 (Enter /usr/local/intel/g16/l103.exe)

 GradGradGradGradGradGradGradGradGradGradGradGradGradGradGradGradGradGrad
 Berny optimization.
 Initialization pass.
                           ----------------------------
                           !    Initial Parameters    !
                           ! (Angstroms and Degrees)  !
 --------------------------                            --------------------------
 ! Name  Definition              Value          Derivative Info.                !
 --------------------------------------------------------------------------------
 ! R1    R(1,2)                  1.5428         estimate D2E/DX2                !
 ! R2    R(1,28)                 1.0946         estimate D2E/DX2                !
 ! R3    R(1,29)                 1.0963         estimate D2E/DX2                !
 ! R4    R(1,30)                 1.0963         estimate D2E/DX2                !
 ! R5    R(2,3)                  1.5235         estimate D2E/DX2                !
 ! R6    R(2,9)                  1.5481         estimate D2E/DX2                !
 ! R7    R(2,31)                 1.0999         estimate D2E/DX2                !
 ! R8    R(3,4)                  1.4076         estimate D2E/DX2                !
 ! R9    R(3,8)                  1.404          estimate D2E/DX2                !
 ! R10   R(4,5)                  1.3989         estimate D2E/DX2                !
 ! R11   R(4,32)                 1.0864         estimate D2E/DX2                !
 ! R12   R(5,6)                  1.4048         estimate D2E/DX2                !
 ! R13   R(5,33)                 1.085          estimate D2E/DX2                !
 ! R14   R(6,7)                  1.4013         estimate D2E/DX2                !
 ! R15   R(6,34)                 1.0851         estimate D2E/DX2                !
 ! R16   R(7,8)                  1.4044         estimate D2E/DX2                !
 ! R17   R(7,35)                 1.0855         estimate D2E/DX2                !
 ! R18   R(8,36)                 1.0874         estimate D2E/DX2                !
 ! R19   R(9,10)                 1.5433         estimate D2E/DX2                !
 ! R20   R(9,37)                 1.0962         estimate D2E/DX2                !
 ! R21   R(9,38)                 1.0964         estimate D2E/DX2                !
 ! R22   R(10,11)                1.515          estimate D2E/DX2                !
 ! R23   R(10,17)                1.477          estimate D2E/DX2                !
 ! R24   R(10,39)                1.0923         estimate D2E/DX2                !
 ! R25   R(11,12)                1.4009         estimate D2E/DX2                !
 ! R26   R(11,16)                1.4053         estimate D2E/DX2                !
 ! R27   R(12,13)                1.4016         estimate D2E/DX2                !
 ! R28   R(12,40)                1.0862         estimate D2E/DX2                !
 ! R29   R(13,14)                1.4021         estimate D2E/DX2                !
 ! R30   R(13,41)                1.085          estimate D2E/DX2                !
 ! R31   R(14,15)                1.4054         estimate D2E/DX2                !
 ! R32   R(14,42)                1.0852         estimate D2E/DX2                !
 ! R33   R(15,16)                1.4            estimate D2E/DX2                !
 ! R34   R(15,43)                1.0854         estimate D2E/DX2                !
 ! R35   R(16,44)                1.0863         estimate D2E/DX2                !
 ! R36   R(17,18)                1.4645         estimate D2E/DX2                !
 ! R37   R(18,19)                1.5142         estimate D2E/DX2                !
 ! R38   R(18,23)                1.5081         estimate D2E/DX2                !
 ! R39   R(19,20)                1.5531         estimate D2E/DX2                !
 ! R40   R(19,25)                1.5604         estimate D2E/DX2                !
 ! R41   R(19,26)                1.5527         estimate D2E/DX2                !
 ! R42   R(20,21)                1.5092         estimate D2E/DX2                !
 ! R43   R(20,45)                1.0957         estimate D2E/DX2                !
 ! R44   R(20,46)                1.0927         estimate D2E/DX2                !
 ! R45   R(21,22)                1.5096         estimate D2E/DX2                !
 ! R46   R(21,57)                1.2431         estimate D2E/DX2                !
 ! R47   R(22,23)                1.5532         estimate D2E/DX2                !
 ! R48   R(22,47)                1.0975         estimate D2E/DX2                !
 ! R49   R(22,48)                1.0927         estimate D2E/DX2                !
 ! R50   R(23,24)                1.5388         estimate D2E/DX2                !
 ! R51   R(23,27)                1.5489         estimate D2E/DX2                !
 ! R52   R(24,49)                1.0915         estimate D2E/DX2                !
 ! R53   R(24,50)                1.0941         estimate D2E/DX2                !
 ! R54   R(24,66)                1.0963         estimate D2E/DX2                !
 ! R55   R(25,51)                1.0943         estimate D2E/DX2                !
 ! R56   R(25,52)                1.0947         estimate D2E/DX2                !
 ! R57   R(25,59)                1.5399         estimate D2E/DX2                !
 ! R58   R(26,53)                1.0952         estimate D2E/DX2                !
 ! R59   R(26,54)                1.095          estimate D2E/DX2                !
 ! R60   R(26,58)                1.5412         estimate D2E/DX2                !
 ! R61   R(27,55)                1.0931         estimate D2E/DX2                !
 ! R62   R(27,56)                1.0927         estimate D2E/DX2                !
 ! R63   R(27,67)                1.0954         estimate D2E/DX2                !
 ! R64   R(58,60)                1.0947         estimate D2E/DX2                !
 ! R65   R(58,61)                1.0962         estimate D2E/DX2                !
 ! R66   R(58,62)                1.0954         estimate D2E/DX2                !
 ! R67   R(59,63)                1.0946         estimate D2E/DX2                !
 ! R68   R(59,64)                1.0952         estimate D2E/DX2                !
 ! R69   R(59,65)                1.0965         estimate D2E/DX2                !
 ! A1    A(2,1,28)             110.8174         estimate D2E/DX2                !
 ! A2    A(2,1,29)             110.8773         estimate D2E/DX2                !
 ! A3    A(2,1,30)             110.7075         estimate D2E/DX2                !
 ! A4    A(28,1,29)            107.8564         estimate D2E/DX2                !
 ! A5    A(28,1,30)            108.5352         estimate D2E/DX2                !
 ! A6    A(29,1,30)            107.9368         estimate D2E/DX2                !
 ! A7    A(1,2,3)              111.4899         estimate D2E/DX2                !
 ! A8    A(1,2,9)              110.219          estimate D2E/DX2                !
 ! A9    A(1,2,31)             107.7679         estimate D2E/DX2                !
 ! A10   A(3,2,9)              112.4843         estimate D2E/DX2                !
 ! A11   A(3,2,31)             107.5462         estimate D2E/DX2                !
 ! A12   A(9,2,31)             107.0854         estimate D2E/DX2                !
 ! A13   A(2,3,4)              120.9439         estimate D2E/DX2                !
 ! A14   A(2,3,8)              120.5352         estimate D2E/DX2                !
 ! A15   A(4,3,8)              118.5089         estimate D2E/DX2                !
 ! A16   A(3,4,5)              120.8435         estimate D2E/DX2                !
 ! A17   A(3,4,32)             119.8145         estimate D2E/DX2                !
 ! A18   A(5,4,32)             119.3195         estimate D2E/DX2                !
 ! A19   A(4,5,6)              120.1964         estimate D2E/DX2                !
 ! A20   A(4,5,33)             119.8091         estimate D2E/DX2                !
 ! A21   A(6,5,33)             119.989          estimate D2E/DX2                !
 ! A22   A(5,6,7)              119.4958         estimate D2E/DX2                !
 ! A23   A(5,6,34)             120.2021         estimate D2E/DX2                !
 ! A24   A(7,6,34)             120.3021         estimate D2E/DX2                !
 ! A25   A(6,7,8)              119.9991         estimate D2E/DX2                !
 ! A26   A(6,7,35)             120.1136         estimate D2E/DX2                !
 ! A27   A(8,7,35)             119.8871         estimate D2E/DX2                !
 ! A28   A(3,8,7)              120.9513         estimate D2E/DX2                !
 ! A29   A(3,8,36)             119.4248         estimate D2E/DX2                !
 ! A30   A(7,8,36)             119.6229         estimate D2E/DX2                !
 ! A31   A(2,9,10)             113.0587         estimate D2E/DX2                !
 ! A32   A(2,9,37)             108.5446         estimate D2E/DX2                !
 ! A33   A(2,9,38)             109.7673         estimate D2E/DX2                !
 ! A34   A(10,9,37)            107.9892         estimate D2E/DX2                !
 ! A35   A(10,9,38)            110.4721         estimate D2E/DX2                !
 ! A36   A(37,9,38)            106.7794         estimate D2E/DX2                !
 ! A37   A(9,10,11)            113.545          estimate D2E/DX2                !
 ! A38   A(9,10,17)            105.756          estimate D2E/DX2                !
 ! A39   A(9,10,39)            109.6499         estimate D2E/DX2                !
 ! A40   A(11,10,17)           111.2436         estimate D2E/DX2                !
 ! A41   A(11,10,39)           108.9281         estimate D2E/DX2                !
 ! A42   A(17,10,39)           107.525          estimate D2E/DX2                !
 ! A43   A(10,11,12)           120.4549         estimate D2E/DX2                !
 ! A44   A(10,11,16)           120.4174         estimate D2E/DX2                !
 ! A45   A(12,11,16)           119.1277         estimate D2E/DX2                !
 ! A46   A(11,12,13)           120.6506         estimate D2E/DX2                !
 ! A47   A(11,12,40)           119.496          estimate D2E/DX2                !
 ! A48   A(13,12,40)           119.8465         estimate D2E/DX2                !
 ! A49   A(12,13,14)           120.0248         estimate D2E/DX2                !
 ! A50   A(12,13,41)           119.8246         estimate D2E/DX2                !
 ! A51   A(14,13,41)           120.15           estimate D2E/DX2                !
 ! A52   A(13,14,15)           119.6275         estimate D2E/DX2                !
 ! A53   A(13,14,42)           120.2214         estimate D2E/DX2                !
 ! A54   A(15,14,42)           120.151          estimate D2E/DX2                !
 ! A55   A(14,15,16)           120.0513         estimate D2E/DX2                !
 ! A56   A(14,15,43)           119.9787         estimate D2E/DX2                !
 ! A57   A(16,15,43)           119.9699         estimate D2E/DX2                !
 ! A58   A(11,16,15)           120.5148         estimate D2E/DX2                !
 ! A59   A(11,16,44)           119.5676         estimate D2E/DX2                !
 ! A60   A(15,16,44)           119.9075         estimate D2E/DX2                !
 ! A61   A(10,17,18)           113.4394         estimate D2E/DX2                !
 ! A62   A(17,18,19)           107.3527         estimate D2E/DX2                !
 ! A63   A(17,18,23)           107.2681         estimate D2E/DX2                !
 ! A64   A(19,18,23)           120.0037         estimate D2E/DX2                !
 ! A65   A(18,19,20)           107.9404         estimate D2E/DX2                !
 ! A66   A(18,19,25)           112.3906         estimate D2E/DX2                !
 ! A67   A(18,19,26)           107.8917         estimate D2E/DX2                !
 ! A68   A(20,19,25)           110.0014         estimate D2E/DX2                !
 ! A69   A(20,19,26)           108.1659         estimate D2E/DX2                !
 ! A70   A(25,19,26)           110.319          estimate D2E/DX2                !
 ! A71   A(19,20,21)           111.563          estimate D2E/DX2                !
 ! A72   A(19,20,45)           109.2655         estimate D2E/DX2                !
 ! A73   A(19,20,46)           109.562          estimate D2E/DX2                !
 ! A74   A(21,20,45)           107.4903         estimate D2E/DX2                !
 ! A75   A(21,20,46)           110.2239         estimate D2E/DX2                !
 ! A76   A(45,20,46)           108.6668         estimate D2E/DX2                !
 ! A77   A(20,21,22)           112.9098         estimate D2E/DX2                !
 ! A78   A(20,21,57)           123.5089         estimate D2E/DX2                !
 ! A79   A(22,21,57)           123.5743         estimate D2E/DX2                !
 ! A80   A(21,22,23)           111.5443         estimate D2E/DX2                !
 ! A81   A(21,22,47)           108.4778         estimate D2E/DX2                !
 ! A82   A(21,22,48)           110.1287         estimate D2E/DX2                !
 ! A83   A(23,22,47)           108.6091         estimate D2E/DX2                !
 ! A84   A(23,22,48)           109.1454         estimate D2E/DX2                !
 ! A85   A(47,22,48)           108.8819         estimate D2E/DX2                !
 ! A86   A(18,23,22)           107.8275         estimate D2E/DX2                !
 ! A87   A(18,23,24)           107.9452         estimate D2E/DX2                !
 ! A88   A(18,23,27)           114.5927         estimate D2E/DX2                !
 ! A89   A(22,23,24)           107.5001         estimate D2E/DX2                !
 ! A90   A(22,23,27)           110.0181         estimate D2E/DX2                !
 ! A91   A(24,23,27)           108.716          estimate D2E/DX2                !
 ! A92   A(23,24,49)           111.2549         estimate D2E/DX2                !
 ! A93   A(23,24,50)           110.4555         estimate D2E/DX2                !
 ! A94   A(23,24,66)           109.595          estimate D2E/DX2                !
 ! A95   A(49,24,50)           108.3017         estimate D2E/DX2                !
 ! A96   A(49,24,66)           108.2342         estimate D2E/DX2                !
 ! A97   A(50,24,66)           108.9361         estimate D2E/DX2                !
 ! A98   A(19,25,51)           107.5455         estimate D2E/DX2                !
 ! A99   A(19,25,52)           108.7623         estimate D2E/DX2                !
 ! A100  A(19,25,59)           116.073          estimate D2E/DX2                !
 ! A101  A(51,25,52)           107.1404         estimate D2E/DX2                !
 ! A102  A(51,25,59)           109.3442         estimate D2E/DX2                !
 ! A103  A(52,25,59)           107.6425         estimate D2E/DX2                !
 ! A104  A(19,26,53)           108.1062         estimate D2E/DX2                !
 ! A105  A(19,26,54)           107.9575         estimate D2E/DX2                !
 ! A106  A(19,26,58)           115.491          estimate D2E/DX2                !
 ! A107  A(53,26,54)           105.9031         estimate D2E/DX2                !
 ! A108  A(53,26,58)           110.4477         estimate D2E/DX2                !
 ! A109  A(54,26,58)           108.4867         estimate D2E/DX2                !
 ! A110  A(23,27,55)           112.8458         estimate D2E/DX2                !
 ! A111  A(23,27,56)           109.7569         estimate D2E/DX2                !
 ! A112  A(23,27,67)           109.092          estimate D2E/DX2                !
 ! A113  A(55,27,56)           109.1598         estimate D2E/DX2                !
 ! A114  A(55,27,67)           107.4225         estimate D2E/DX2                !
 ! A115  A(56,27,67)           108.4495         estimate D2E/DX2                !
 ! A116  A(26,58,60)           110.956          estimate D2E/DX2                !
 ! A117  A(26,58,61)           110.4942         estimate D2E/DX2                !
 ! A118  A(26,58,62)           111.6547         estimate D2E/DX2                !
 ! A119  A(60,58,61)           108.4695         estimate D2E/DX2                !
 ! A120  A(60,58,62)           108.0039         estimate D2E/DX2                !
 ! A121  A(61,58,62)           107.1154         estimate D2E/DX2                !
 ! A122  A(25,59,63)           112.1171         estimate D2E/DX2                !
 ! A123  A(25,59,64)           109.4058         estimate D2E/DX2                !
 ! A124  A(25,59,65)           112.1574         estimate D2E/DX2                !
 ! A125  A(63,59,64)           107.4656         estimate D2E/DX2                !
 ! A126  A(63,59,65)           108.2018         estimate D2E/DX2                !
 ! A127  A(64,59,65)           107.2716         estimate D2E/DX2                !
 ! D1    D(28,1,2,3)            56.7444         estimate D2E/DX2                !
 ! D2    D(28,1,2,9)          -177.5941         estimate D2E/DX2                !
 ! D3    D(28,1,2,31)          -61.0558         estimate D2E/DX2                !
 ! D4    D(29,1,2,3)           -62.9991         estimate D2E/DX2                !
 ! D5    D(29,1,2,9)            62.6625         estimate D2E/DX2                !
 ! D6    D(29,1,2,31)          179.2007         estimate D2E/DX2                !
 ! D7    D(30,1,2,3)           177.2288         estimate D2E/DX2                !
 ! D8    D(30,1,2,9)           -57.1097         estimate D2E/DX2                !
 ! D9    D(30,1,2,31)           59.4286         estimate D2E/DX2                !
 ! D10   D(1,2,3,4)             64.2057         estimate D2E/DX2                !
 ! D11   D(1,2,3,8)           -117.0721         estimate D2E/DX2                !
 ! D12   D(9,2,3,4)            -60.1925         estimate D2E/DX2                !
 ! D13   D(9,2,3,8)            118.5298         estimate D2E/DX2                !
 ! D14   D(31,2,3,4)          -177.8607         estimate D2E/DX2                !
 ! D15   D(31,2,3,8)             0.8616         estimate D2E/DX2                !
 ! D16   D(1,2,9,10)           179.7355         estimate D2E/DX2                !
 ! D17   D(1,2,9,37)            59.9446         estimate D2E/DX2                !
 ! D18   D(1,2,9,38)           -56.4226         estimate D2E/DX2                !
 ! D19   D(3,2,9,10)           -55.1683         estimate D2E/DX2                !
 ! D20   D(3,2,9,37)          -174.9592         estimate D2E/DX2                !
 ! D21   D(3,2,9,38)            68.6736         estimate D2E/DX2                !
 ! D22   D(31,2,9,10)           62.7724         estimate D2E/DX2                !
 ! D23   D(31,2,9,37)          -57.0186         estimate D2E/DX2                !
 ! D24   D(31,2,9,38)         -173.3857         estimate D2E/DX2                !
 ! D25   D(2,3,4,5)            177.9614         estimate D2E/DX2                !
 ! D26   D(2,3,4,32)            -0.303          estimate D2E/DX2                !
 ! D27   D(8,3,4,5)             -0.7862         estimate D2E/DX2                !
 ! D28   D(8,3,4,32)          -179.0506         estimate D2E/DX2                !
 ! D29   D(2,3,8,7)           -178.1864         estimate D2E/DX2                !
 ! D30   D(2,3,8,36)             1.4352         estimate D2E/DX2                !
 ! D31   D(4,3,8,7)              0.5665         estimate D2E/DX2                !
 ! D32   D(4,3,8,36)          -179.8119         estimate D2E/DX2                !
 ! D33   D(3,4,5,6)              0.3848         estimate D2E/DX2                !
 ! D34   D(3,4,5,33)          -178.763          estimate D2E/DX2                !
 ! D35   D(32,4,5,6)           178.6577         estimate D2E/DX2                !
 ! D36   D(32,4,5,33)           -0.4901         estimate D2E/DX2                !
 ! D37   D(4,5,6,7)              0.2507         estimate D2E/DX2                !
 ! D38   D(4,5,6,34)          -179.7044         estimate D2E/DX2                !
 ! D39   D(33,5,6,7)           179.3971         estimate D2E/DX2                !
 ! D40   D(33,5,6,34)           -0.558          estimate D2E/DX2                !
 ! D41   D(5,6,7,8)             -0.468          estimate D2E/DX2                !
 ! D42   D(5,6,7,35)           179.7187         estimate D2E/DX2                !
 ! D43   D(34,6,7,8)           179.4871         estimate D2E/DX2                !
 ! D44   D(34,6,7,35)           -0.3262         estimate D2E/DX2                !
 ! D45   D(6,7,8,3)              0.0553         estimate D2E/DX2                !
 ! D46   D(6,7,8,36)          -179.5656         estimate D2E/DX2                !
 ! D47   D(35,7,8,3)           179.869          estimate D2E/DX2                !
 ! D48   D(35,7,8,36)            0.2481         estimate D2E/DX2                !
 ! D49   D(2,9,10,11)           91.7545         estimate D2E/DX2                !
 ! D50   D(2,9,10,17)         -145.9956         estimate D2E/DX2                !
 ! D51   D(2,9,10,39)          -30.3395         estimate D2E/DX2                !
 ! D52   D(37,9,10,11)        -148.1363         estimate D2E/DX2                !
 ! D53   D(37,9,10,17)         -25.8865         estimate D2E/DX2                !
 ! D54   D(37,9,10,39)          89.7696         estimate D2E/DX2                !
 ! D55   D(38,9,10,11)         -31.6995         estimate D2E/DX2                !
 ! D56   D(38,9,10,17)          90.5504         estimate D2E/DX2                !
 ! D57   D(38,9,10,39)        -153.7935         estimate D2E/DX2                !
 ! D58   D(9,10,11,12)        -120.5959         estimate D2E/DX2                !
 ! D59   D(9,10,11,16)          59.4159         estimate D2E/DX2                !
 ! D60   D(17,10,11,12)        120.2478         estimate D2E/DX2                !
 ! D61   D(17,10,11,16)        -59.7403         estimate D2E/DX2                !
 ! D62   D(39,10,11,12)          1.8979         estimate D2E/DX2                !
 ! D63   D(39,10,11,16)       -178.0903         estimate D2E/DX2                !
 ! D64   D(9,10,17,18)         139.6967         estimate D2E/DX2                !
 ! D65   D(11,10,17,18)        -96.592          estimate D2E/DX2                !
 ! D66   D(39,10,17,18)         22.5994         estimate D2E/DX2                !
 ! D67   D(10,11,12,13)        179.4225         estimate D2E/DX2                !
 ! D68   D(10,11,12,40)          0.3793         estimate D2E/DX2                !
 ! D69   D(16,11,12,13)         -0.5892         estimate D2E/DX2                !
 ! D70   D(16,11,12,40)       -179.6324         estimate D2E/DX2                !
 ! D71   D(10,11,16,15)       -179.8351         estimate D2E/DX2                !
 ! D72   D(10,11,16,44)          1.3264         estimate D2E/DX2                !
 ! D73   D(12,11,16,15)          0.1765         estimate D2E/DX2                !
 ! D74   D(12,11,16,44)       -178.662          estimate D2E/DX2                !
 ! D75   D(11,12,13,14)          0.5118         estimate D2E/DX2                !
 ! D76   D(11,12,13,41)       -179.2308         estimate D2E/DX2                !
 ! D77   D(40,12,13,14)        179.5517         estimate D2E/DX2                !
 ! D78   D(40,12,13,41)         -0.1909         estimate D2E/DX2                !
 ! D79   D(12,13,14,15)         -0.0162         estimate D2E/DX2                !
 ! D80   D(12,13,14,42)        179.8899         estimate D2E/DX2                !
 ! D81   D(41,13,14,15)        179.7255         estimate D2E/DX2                !
 ! D82   D(41,13,14,42)         -0.3685         estimate D2E/DX2                !
 ! D83   D(13,14,15,16)         -0.3925         estimate D2E/DX2                !
 ! D84   D(13,14,15,43)        179.521          estimate D2E/DX2                !
 ! D85   D(42,14,15,16)        179.7014         estimate D2E/DX2                !
 ! D86   D(42,14,15,43)         -0.3851         estimate D2E/DX2                !
 ! D87   D(14,15,16,11)          0.3128         estimate D2E/DX2                !
 ! D88   D(14,15,16,44)        179.1473         estimate D2E/DX2                !
 ! D89   D(43,15,16,11)       -179.6008         estimate D2E/DX2                !
 ! D90   D(43,15,16,44)         -0.7662         estimate D2E/DX2                !
 ! D91   D(10,17,18,19)       -105.7621         estimate D2E/DX2                !
 ! D92   D(10,17,18,23)        124.015          estimate D2E/DX2                !
 ! D93   D(17,18,19,20)       -173.6719         estimate D2E/DX2                !
 ! D94   D(17,18,19,25)        -52.1903         estimate D2E/DX2                !
 ! D95   D(17,18,19,26)         69.6562         estimate D2E/DX2                !
 ! D96   D(23,18,19,20)        -51.0185         estimate D2E/DX2                !
 ! D97   D(23,18,19,25)         70.4632         estimate D2E/DX2                !
 ! D98   D(23,18,19,26)       -167.6903         estimate D2E/DX2                !
 ! D99   D(17,18,23,22)        173.9325         estimate D2E/DX2                !
 ! D100  D(17,18,23,24)        -70.2071         estimate D2E/DX2                !
 ! D101  D(17,18,23,27)         51.0687         estimate D2E/DX2                !
 ! D102  D(19,18,23,22)         51.2378         estimate D2E/DX2                !
 ! D103  D(19,18,23,24)        167.0983         estimate D2E/DX2                !
 ! D104  D(19,18,23,27)        -71.6259         estimate D2E/DX2                !
 ! D105  D(18,19,20,21)         50.5496         estimate D2E/DX2                !
 ! D106  D(18,19,20,45)        -68.1654         estimate D2E/DX2                !
 ! D107  D(18,19,20,46)        172.8865         estimate D2E/DX2                !
 ! D108  D(25,19,20,21)        -72.4025         estimate D2E/DX2                !
 ! D109  D(25,19,20,45)        168.8824         estimate D2E/DX2                !
 ! D110  D(25,19,20,46)         49.9343         estimate D2E/DX2                !
 ! D111  D(26,19,20,21)        167.0431         estimate D2E/DX2                !
 ! D112  D(26,19,20,45)         48.3281         estimate D2E/DX2                !
 ! D113  D(26,19,20,46)        -70.6201         estimate D2E/DX2                !
 ! D114  D(18,19,25,51)         40.7604         estimate D2E/DX2                !
 ! D115  D(18,19,25,52)        -74.9513         estimate D2E/DX2                !
 ! D116  D(18,19,25,59)        163.5443         estimate D2E/DX2                !
 ! D117  D(20,19,25,51)        161.0577         estimate D2E/DX2                !
 ! D118  D(20,19,25,52)         45.346          estimate D2E/DX2                !
 ! D119  D(20,19,25,59)        -76.1585         estimate D2E/DX2                !
 ! D120  D(26,19,25,51)        -79.6949         estimate D2E/DX2                !
 ! D121  D(26,19,25,52)        164.5934         estimate D2E/DX2                !
 ! D122  D(26,19,25,59)         43.0889         estimate D2E/DX2                !
 ! D123  D(18,19,26,53)        -66.1787         estimate D2E/DX2                !
 ! D124  D(18,19,26,54)        179.678          estimate D2E/DX2                !
 ! D125  D(18,19,26,58)         58.0908         estimate D2E/DX2                !
 ! D126  D(20,19,26,53)        177.2962         estimate D2E/DX2                !
 ! D127  D(20,19,26,54)         63.1529         estimate D2E/DX2                !
 ! D128  D(20,19,26,58)        -58.4343         estimate D2E/DX2                !
 ! D129  D(25,19,26,53)         56.9402         estimate D2E/DX2                !
 ! D130  D(25,19,26,54)        -57.2032         estimate D2E/DX2                !
 ! D131  D(25,19,26,58)       -178.7904         estimate D2E/DX2                !
 ! D132  D(19,20,21,22)        -57.6982         estimate D2E/DX2                !
 ! D133  D(19,20,21,57)        121.3633         estimate D2E/DX2                !
 ! D134  D(45,20,21,22)         62.0704         estimate D2E/DX2                !
 ! D135  D(45,20,21,57)       -118.8681         estimate D2E/DX2                !
 ! D136  D(46,20,21,22)       -179.6539         estimate D2E/DX2                !
 ! D137  D(46,20,21,57)         -0.5924         estimate D2E/DX2                !
 ! D138  D(20,21,22,23)         57.9904         estimate D2E/DX2                !
 ! D139  D(20,21,22,47)        -61.5908         estimate D2E/DX2                !
 ! D140  D(20,21,22,48)        179.3389         estimate D2E/DX2                !
 ! D141  D(57,21,22,23)       -121.0704         estimate D2E/DX2                !
 ! D142  D(57,21,22,47)        119.3484         estimate D2E/DX2                !
 ! D143  D(57,21,22,48)          0.2781         estimate D2E/DX2                !
 ! D144  D(21,22,23,18)        -51.1116         estimate D2E/DX2                !
 ! D145  D(21,22,23,24)       -167.2636         estimate D2E/DX2                !
 ! D146  D(21,22,23,27)         74.5101         estimate D2E/DX2                !
 ! D147  D(47,22,23,18)         68.3919         estimate D2E/DX2                !
 ! D148  D(47,22,23,24)        -47.76           estimate D2E/DX2                !
 ! D149  D(47,22,23,27)       -165.9864         estimate D2E/DX2                !
 ! D150  D(48,22,23,18)       -173.0296         estimate D2E/DX2                !
 ! D151  D(48,22,23,24)         70.8184         estimate D2E/DX2                !
 ! D152  D(48,22,23,27)        -47.4079         estimate D2E/DX2                !
 ! D153  D(18,23,24,49)         73.9226         estimate D2E/DX2                !
 ! D154  D(18,23,24,50)        -46.3892         estimate D2E/DX2                !
 ! D155  D(18,23,24,66)       -166.4175         estimate D2E/DX2                !
 ! D156  D(22,23,24,49)       -170.0029         estimate D2E/DX2                !
 ! D157  D(22,23,24,50)         69.6853         estimate D2E/DX2                !
 ! D158  D(22,23,24,66)        -50.343          estimate D2E/DX2                !
 ! D159  D(27,23,24,49)        -50.9386         estimate D2E/DX2                !
 ! D160  D(27,23,24,50)       -171.2504         estimate D2E/DX2                !
 ! D161  D(27,23,24,66)         68.7213         estimate D2E/DX2                !
 ! D162  D(18,23,27,55)         78.8502         estimate D2E/DX2                !
 ! D163  D(18,23,27,56)        -43.1376         estimate D2E/DX2                !
 ! D164  D(18,23,27,67)       -161.833          estimate D2E/DX2                !
 ! D165  D(22,23,27,55)        -42.8241         estimate D2E/DX2                !
 ! D166  D(22,23,27,56)       -164.8118         estimate D2E/DX2                !
 ! D167  D(22,23,27,67)         76.4927         estimate D2E/DX2                !
 ! D168  D(24,23,27,55)       -160.2979         estimate D2E/DX2                !
 ! D169  D(24,23,27,56)         77.7143         estimate D2E/DX2                !
 ! D170  D(24,23,27,67)        -40.9811         estimate D2E/DX2                !
 ! D171  D(19,25,59,63)        -68.9861         estimate D2E/DX2                !
 ! D172  D(19,25,59,64)        171.8933         estimate D2E/DX2                !
 ! D173  D(19,25,59,65)         52.9896         estimate D2E/DX2                !
 ! D174  D(51,25,59,63)         52.8491         estimate D2E/DX2                !
 ! D175  D(51,25,59,64)        -66.2716         estimate D2E/DX2                !
 ! D176  D(51,25,59,65)        174.8248         estimate D2E/DX2                !
 ! D177  D(52,25,59,63)        168.9156         estimate D2E/DX2                !
 ! D178  D(52,25,59,64)         49.7949         estimate D2E/DX2                !
 ! D179  D(52,25,59,65)        -69.1087         estimate D2E/DX2                !
 ! D180  D(19,26,58,60)        -38.1235         estimate D2E/DX2                !
 ! D181  D(19,26,58,61)       -158.4752         estimate D2E/DX2                !
 ! D182  D(19,26,58,62)         82.418          estimate D2E/DX2                !
 ! D183  D(53,26,58,60)         84.9158         estimate D2E/DX2                !
 ! D184  D(53,26,58,61)        -35.4359         estimate D2E/DX2                !
 ! D185  D(53,26,58,62)       -154.5427         estimate D2E/DX2                !
 ! D186  D(54,26,58,60)       -159.4257         estimate D2E/DX2                !
 ! D187  D(54,26,58,61)         80.2225         estimate D2E/DX2                !
 ! D188  D(54,26,58,62)        -38.8842         estimate D2E/DX2                !
 --------------------------------------------------------------------------------
 Trust Radius=3.00D-01 FncErr=1.00D-07 GrdErr=1.00D-06 EigMax=2.50D+02 EigMin=1.00D-04
 Number of steps in this run=    394 maximum allowed number of steps=    402.
 GradGradGradGradGradGradGradGradGradGradGradGradGradGradGradGradGradGrad

 Leave Link  103 at Fri Jan 10 10:01:20 2025, MaxMem=  4026531840 cpu:               0.4 elap:               0.1
 (Enter /usr/local/intel/g16/l202.exe)
 Stoichiometry    C27H37NO2
 Framework group  C1[X(C27H37NO2)]
 Deg. of freedom   195
 Full point group                 C1      NOp   1
 Largest Abelian subgroup         C1      NOp   1
 Largest concise Abelian subgroup C1      NOp   1
                         Standard orientation:                         
 ---------------------------------------------------------------------
 Center     Atomic      Atomic             Coordinates (Angstroms)
 Number     Number       Type             X           Y           Z
 ---------------------------------------------------------------------
      1          6           0        2.553678   -3.263914   -1.693508
      2          6           0        2.027916   -2.221104   -0.685398
      3          6           0        3.170203   -1.514332    0.033342
      4          6           0        4.078789   -0.704030   -0.673281
      5          6           0        5.101424   -0.022246   -0.005250
      6          6           0        5.240115   -0.144988    1.387301
      7          6           0        4.349920   -0.959249    2.100224
      8          6           0        3.322800   -1.637174    1.423631
      9          6           0        1.069476   -1.230935   -1.390718
     10          6           0        0.498255   -0.159869   -0.437621
     11          6           0        1.325351    1.108399   -0.387200
     12          6           0        1.878640    1.547643    0.822499
     13          6           0        2.654529    2.713892    0.871630
     14          6           0        2.874873    3.459597   -0.295052
     15          6           0        2.314243    3.030413   -1.510172
     16          6           0        1.547364    1.859917   -1.553786
     17          8           0       -0.871965    0.113477   -0.916564
     18          7           0       -1.844670    0.280948    0.165339
     19          6           0       -2.692049   -0.973221    0.208951
     20          6           0       -3.829902   -0.746143    1.241423
     21          6           0       -4.555253    0.553381    0.990631
     22          6           0       -3.639392    1.753028    1.021456
     23          6           0       -2.498487    1.626612   -0.024803
     24          6           0       -1.454392    2.710571    0.295852
     25          6           0       -3.298521   -1.329547   -1.183951
     26          6           0       -1.798423   -2.135123    0.721117
     27          6           0       -3.054468    1.877739   -1.448535
     28          1           0        3.199194   -3.994805   -1.196157
     29          1           0        3.139382   -2.781631   -2.484802
     30          1           0        1.722138   -3.798721   -2.167211
     31          1           0        1.438679   -2.755741    0.073979
     32          1           0        3.971095   -0.581600   -1.747418
     33          1           0        5.780160    0.613754   -0.563893
     34          1           0        6.030387    0.387613    1.906210
     35          1           0        4.450692   -1.064922    3.175826
     36          1           0        2.631125   -2.261792    1.983847
     37          1           0        0.228067   -1.796934   -1.807172
     38          1           0        1.581995   -0.757557   -2.236435
     39          1           0        0.418178   -0.571004    0.571198
     40          1           0        1.715843    0.968187    1.726673
     41          1           0        3.087000    3.035033    1.813482
     42          1           0        3.473624    4.364055   -0.260325
     43          1           0        2.474704    3.607552   -2.415323
     44          1           0        1.103556    1.537760   -2.491552
     45          1           0       -3.399827   -0.694302    2.247808
     46          1           0       -4.530918   -1.583457    1.203378
     47          1           0       -3.191724    1.823284    2.021033
     48          1           0       -4.207671    2.665169    0.823578
     49          1           0       -0.713334    2.794275   -0.501167
     50          1           0       -0.931722    2.474320    1.227523
     51          1           0       -2.525400   -1.147565   -1.936685
     52          1           0       -4.123066   -0.641303   -1.395443
     53          1           0       -1.025349   -2.326772   -0.030633
     54          1           0       -2.411770   -3.041506    0.758591
     55          1           0       -4.015148    1.385918   -1.621843
     56          1           0       -2.334157    1.530097   -2.192971
     57          8           0       -5.775389    0.625644    0.764175
     58          6           0       -1.159947   -1.919474    2.107133
     59          6           0       -3.835934   -2.764008   -1.341205
     60          1           0       -0.848853   -0.877964    2.237135
     61          1           0       -0.280427   -2.562390    2.228771
     62          1           0       -1.855629   -2.168494    2.915822
     63          1           0       -3.032785   -3.507692   -1.337656
     64          1           0       -4.361878   -2.852745   -2.297803
     65          1           0       -4.549809   -3.027068   -0.551565
     66          1           0       -1.953081    3.680921    0.403885
     67          1           0       -3.206582    2.953400   -1.589211
 ---------------------------------------------------------------------
 Rotational constants (GHZ):           0.2632942           0.1109585           0.0942074
 Leave Link  202 at Fri Jan 10 10:01:20 2025, MaxMem=  4026531840 cpu:               0.1 elap:               0.0
 (Enter /usr/local/intel/g16/l301.exe)
 Standard basis: def2TZVP (5D, 7F)
 Ernie: Thresh=  0.10000D-02 Tol=  0.10000D-05 Strict=F.
 There are  1302 symmetry adapted cartesian basis functions of A   symmetry.
 There are  1152 symmetry adapted basis functions of A   symmetry.
  1152 basis functions,  1826 primitive gaussians,  1302 cartesian basis functions
   111 alpha electrons      111 beta electrons
       nuclear repulsion energy      3182.7043746702 Hartrees.
 IExCor= 4336 DFT=T Ex+Corr=M062X ExCW=0 ScaHFX=  0.540000
 ScaDFX=  1.000000  1.000000  1.000000  1.000000 ScalE2=  1.000000  1.000000
 IRadAn=      5 IRanWt=     -1 IRanGd=            0 ICorTp=0 IEmpDi=  4
 NAtoms=   67 NActive=   67 NUniq=   67 SFac= 1.00D+00 NAtFMM=   60 NAOKFM=T Big=T
 Integral buffers will be    131072 words long.
 Raffenetti 2 integral format.
 Two-electron integral symmetry is turned on.
 Leave Link  301 at Fri Jan 10 10:01:20 2025, MaxMem=  4026531840 cpu:               1.3 elap:               0.1
 (Enter /usr/local/intel/g16/l302.exe)
 NPDir=0 NMtPBC=     1 NCelOv=     1 NCel=       1 NClECP=     1 NCelD=      1
         NCelK=      1 NCelE2=     1 NClLst=     1 CellRange=     0.0.
 One-electron integrals computed using PRISM.
 One-electron integral symmetry used in STVInt
   1 Symmetry operations used in ECPInt.
 ECPInt:  NShTT=  114481 NPrTT=  339024 LenC2=   97783 LenP2D=  201238.
 LDataN:  DoStor=T MaxTD1= 6 Len=  172
 NBasis=  1152 RedAO= T EigKep=  6.66D-06  NBF=  1152
 NBsUse=  1152 1.00D-06 EigRej= -1.00D+00 NBFU=  1152
 Precomputing XC quadrature grid using
 IXCGrd= 4 IRadAn=           5 IRanWt=          -1 IRanGd=           0 AccXCQ= 0.00D+00.
 Generated NRdTot=       0 NPtTot=           0 NUsed=           0 NTot=          32
 NSgBfM=  1272  1271  1271  1271  1272 MxSgAt=    67 MxSgA2=    67.
 Leave Link  302 at Fri Jan 10 10:01:25 2025, MaxMem=  4026531840 cpu:              99.3 elap:               5.0
 (Enter /usr/local/intel/g16/l303.exe)
 DipDrv:  MaxL=1.
 Leave Link  303 at Fri Jan 10 10:01:26 2025, MaxMem=  4026531840 cpu:               9.2 elap:               0.5
 (Enter /usr/local/intel/g16/l401.exe)
 ExpMin= 9.52D-02 ExpMax= 2.70D+04 ExpMxC= 9.22D+02 IAcc=3 IRadAn=         5 AccDes= 0.00D+00
 Harris functional with IExCor= 1009 and IRadAn=       5 diagonalized for initial guess.
 HarFok:  IExCor= 1009 AccDes= 0.00D+00 IRadAn=         5 IDoV= 1 UseB2=F ITyADJ=14
 ICtDFT=  3500011 ScaDFX=  1.000000  1.000000  1.000000  1.000000
 FoFCou: FMM=F IPFlag=           0 FMFlag=      100000 FMFlg1=        2001
         NFxFlg=           0 DoJE=T BraDBF=F KetDBF=T FulRan=T
         wScrn=  0.000000 ICntrl=       500 IOpCl=  0 I1Cent=   200000004 NGrid=           0
         NMat0=    1 NMatS0=      1 NMatT0=    0 NMatD0=    1 NMtDS0=    0 NMtDT0=    0
 Petite list used in FoFCou.
 Harris En= -1255.74051890185    
 JPrj=0 DoOrth=F DoCkMO=F.
 Leave Link  401 at Fri Jan 10 10:01:40 2025, MaxMem=  4026531840 cpu:             290.4 elap:              14.6
 (Enter /usr/local/intel/g16/l502.exe)
 Integral symmetry usage will be decided dynamically.
 Closed shell SCF:
 Using DIIS extrapolation, IDIIS=  1040.
 NGot=  4026531840 LenX=  4023102166 LenY=  4021405660
 Requested convergence on RMS density matrix=1.00D-08 within 128 cycles.
 Requested convergence on MAX density matrix=1.00D-06.
 Requested convergence on             energy=1.00D-06.
 No special actions if energy rises.
 Fock matrices will be formed incrementally for  20 cycles.
 Integral accuracy reduced to 1.0D-05 until final iterations.

 Cycle   1  Pass 0  IDiag  1:
 FoFJK:  IHMeth= 1 ICntrl=       0 DoSepK=F KAlg= 0 I1Cent=           0 FoldK=F
 IRaf= 900000000 NMat=       1 IRICut=       1 DoRegI=T DoRafI=F ISym2E= 0 IDoP0=0 IntGTp=1.
 FoFCou: FMM=T IPFlag=           0 FMFlag=      100000 FMFlg1=        2001
         NFxFlg=           0 DoJE=F BraDBF=F KetDBF=F FulRan=T
         wScrn=  0.000000 ICntrl=         0 IOpCl=  0 I1Cent=           0 NGrid=           0
         NMat0=    1 NMatS0=      1 NMatT0=    0 NMatD0=    1 NMtDS0=    0 NMtDT0=    0
 Symmetry not used in FoFCou.
 FMM levels:  10  Number of levels for PrismC:   9
 E= -1255.30509109133    
 DIIS: error= 1.72D-02 at cycle   1 NSaved=   1.
 NSaved= 1 IEnMin= 1 EnMin= -1255.30509109133     IErMin= 1 ErrMin= 1.72D-02
 ErrMax= 1.72D-02  0.00D+00 EMaxC= 1.00D-01 BMatC= 1.05D+00 BMatP= 1.05D+00
 IDIUse=3 WtCom= 8.28D-01 WtEn= 1.72D-01
 Coeff-Com:  0.100D+01
 Coeff-En:   0.100D+01
 Coeff:      0.100D+01
 Gap=     0.400 Goal=   None    Shift=    0.000
 GapD=    0.400 DampG=2.000 DampE=0.500 DampFc=1.0000 IDamp=-1.
 RMSDP=4.63D+01 MaxDP=9.24D+03              OVMax= 9.75D-01

 Problem detected with inexpensive integrals.
 Switching to full accuracy and repeating last cycle.
 Cycle   2  Pass 1  IDiag  1:
 E= -1255.30512908337     Delta-E=       -0.000037992044 Rises=F Damp=F
 DIIS: error= 1.72D-02 at cycle   1 NSaved=   1.
 NSaved= 1 IEnMin= 1 EnMin= -1255.30512908337     IErMin= 1 ErrMin= 1.72D-02
 ErrMax= 1.72D-02  0.00D+00 EMaxC= 1.00D-01 BMatC= 1.05D+00 BMatP= 1.05D+00
 IDIUse=3 WtCom= 8.28D-01 WtEn= 1.72D-01
 Coeff-Com:  0.100D+01
 Coeff-En:   0.100D+01
 Coeff:      0.100D+01
 Gap=     0.400 Goal=   None    Shift=    0.000
 GapD=    0.400 DampG=2.000 DampE=0.500 DampFc=1.0000 IDamp=-1.
 RMSDP=2.59D-03 MaxDP=7.48D-01 DE=-3.80D-05 OVMax= 1.42D-01

 Cycle   3  Pass 1  IDiag  1:
 RMSU=  2.58D-03    CP:  9.46D-01
 E= -1255.55152506136     Delta-E=       -0.246395977988 Rises=F Damp=F
 DIIS: error= 1.46D-02 at cycle   2 NSaved=   2.
 NSaved= 2 IEnMin= 2 EnMin= -1255.55152506136     IErMin= 2 ErrMin= 1.46D-02
 ErrMax= 1.46D-02  0.00D+00 EMaxC= 1.00D-01 BMatC= 6.97D-01 BMatP= 1.05D+00
 IDIUse=3 WtCom= 8.54D-01 WtEn= 1.46D-01
 Coeff-Com:  0.444D+00 0.556D+00
 Coeff-En:   0.409D+00 0.591D+00
 Coeff:      0.439D+00 0.561D+00
 Gap=     0.341 Goal=   None    Shift=    0.000
 GapD=    0.341 DampG=1.000 DampE=0.500 DampFc=0.5000 IDamp=-1.
 Damping current iteration by 5.00D-01
 RMSDP=1.82D-03 MaxDP=5.83D-01 DE=-2.46D-01 OVMax= 7.93D-02

 Cycle   4  Pass 1  IDiag  1:
 RMSU=  5.37D-04    CP:  9.40D-01  7.16D-01
 E= -1255.97970637812     Delta-E=       -0.428181316760 Rises=F Damp=T
 DIIS: error= 6.08D-03 at cycle   3 NSaved=   3.
 NSaved= 3 IEnMin= 3 EnMin= -1255.97970637812     IErMin= 3 ErrMin= 6.08D-03
 ErrMax= 6.08D-03  0.00D+00 EMaxC= 1.00D-01 BMatC= 1.31D-01 BMatP= 6.97D-01
 IDIUse=3 WtCom= 9.39D-01 WtEn= 6.08D-02
 Coeff-Com:  0.119D+00-0.421D+00 0.130D+01
 Coeff-En:   0.299D-01 0.000D+00 0.970D+00
 Coeff:      0.113D+00-0.396D+00 0.128D+01
 Gap=     0.310 Goal=   None    Shift=    0.000
 RMSDP=8.12D-04 MaxDP=2.32D-01 DE=-4.28D-01 OVMax= 3.16D-02

 Cycle   5  Pass 1  IDiag  1:
 RMSU=  2.63D-04    CP:  9.33D-01  4.81D-01  1.87D+00
 E= -1256.20672034601     Delta-E=       -0.227013967894 Rises=F Damp=F
 DIIS: error= 2.12D-03 at cycle   4 NSaved=   4.
 NSaved= 4 IEnMin= 4 EnMin= -1256.20672034601     IErMin= 4 ErrMin= 2.12D-03
 ErrMax= 2.12D-03  0.00D+00 EMaxC= 1.00D-01 BMatC= 8.75D-03 BMatP= 1.31D-01
 IDIUse=3 WtCom= 9.79D-01 WtEn= 2.12D-02
 Coeff-Com:  0.162D-01-0.293D+00 0.739D+00 0.538D+00
 Coeff-En:   0.000D+00 0.000D+00 0.000D+00 0.100D+01
 Coeff:      0.159D-01-0.287D+00 0.724D+00 0.547D+00
 Gap=     0.297 Goal=   None    Shift=    0.000
 RMSDP=1.10D-04 MaxDP=2.68D-02 DE=-2.27D-01 OVMax= 1.29D-02

 Cycle   6  Pass 1  IDiag  1:
 RMSU=  8.95D-05    CP:  9.31D-01  4.69D-01  1.94D+00  8.37D-01
 E= -1256.21375121816     Delta-E=       -0.007030872145 Rises=F Damp=F
 DIIS: error= 3.04D-04 at cycle   5 NSaved=   5.
 NSaved= 5 IEnMin= 5 EnMin= -1256.21375121816     IErMin= 5 ErrMin= 3.04D-04
 ErrMax= 3.04D-04  0.00D+00 EMaxC= 1.00D-01 BMatC= 2.94D-04 BMatP= 8.75D-03
 IDIUse=3 WtCom= 9.97D-01 WtEn= 3.04D-03
 Coeff-Com:  0.451D-03-0.928D-01 0.223D+00 0.232D+00 0.638D+00
 Coeff-En:   0.000D+00 0.000D+00 0.000D+00 0.000D+00 0.100D+01
 Coeff:      0.449D-03-0.925D-01 0.222D+00 0.231D+00 0.639D+00
 Gap=     0.296 Goal=   None    Shift=    0.000
 RMSDP=2.67D-05 MaxDP=3.45D-03 DE=-7.03D-03 OVMax= 3.04D-03

 Cycle   7  Pass 1  IDiag  1:
 RMSU=  2.22D-05    CP:  9.32D-01  4.70D-01  1.95D+00  8.38D-01  8.73D-01
 E= -1256.21397270507     Delta-E=       -0.000221486915 Rises=F Damp=F
 DIIS: error= 8.22D-05 at cycle   6 NSaved=   6.
 NSaved= 6 IEnMin= 6 EnMin= -1256.21397270507     IErMin= 6 ErrMin= 8.22D-05
 ErrMax= 8.22D-05  0.00D+00 EMaxC= 1.00D-01 BMatC= 3.30D-05 BMatP= 2.94D-04
 IDIUse=1 WtCom= 1.00D+00 WtEn= 0.00D+00
 Coeff-Com: -0.912D-03-0.209D-01 0.465D-01 0.655D-01 0.313D+00 0.597D+00
 Coeff:     -0.912D-03-0.209D-01 0.465D-01 0.655D-01 0.313D+00 0.597D+00
 Gap=     0.297 Goal=   None    Shift=    0.000
 RMSDP=1.07D-05 MaxDP=2.70D-03 DE=-2.21D-04 OVMax= 9.84D-04

 Cycle   8  Pass 1  IDiag  1:
 RMSU=  7.73D-06    CP:  9.31D-01  4.68D-01  1.96D+00  8.43D-01  9.05D-01
                    CP:  8.95D-01
 E= -1256.21399975471     Delta-E=       -0.000027049636 Rises=F Damp=F
 DIIS: error= 2.10D-05 at cycle   7 NSaved=   7.
 NSaved= 7 IEnMin= 7 EnMin= -1256.21399975471     IErMin= 7 ErrMin= 2.10D-05
 ErrMax= 2.10D-05  0.00D+00 EMaxC= 1.00D-01 BMatC= 1.92D-06 BMatP= 3.30D-05
 IDIUse=1 WtCom= 1.00D+00 WtEn= 0.00D+00
 Coeff-Com: -0.348D-03 0.305D-02-0.920D-02-0.665D-02 0.318D-01 0.187D+00
 Coeff-Com:  0.794D+00
 Coeff:     -0.348D-03 0.305D-02-0.920D-02-0.665D-02 0.318D-01 0.187D+00
 Coeff:      0.794D+00
 Gap=     0.296 Goal=   None    Shift=    0.000
 RMSDP=4.53D-06 MaxDP=1.25D-03 DE=-2.70D-05 OVMax= 3.36D-04

 Cycle   9  Pass 1  IDiag  1:
 RMSU=  2.50D-06    CP:  9.31D-01  4.67D-01  1.96D+00  8.42D-01  9.22D-01
                    CP:  9.38D-01  1.09D+00
 E= -1256.21400145340     Delta-E=       -0.000001698694 Rises=F Damp=F
 DIIS: error= 1.02D-05 at cycle   8 NSaved=   8.
 NSaved= 8 IEnMin= 8 EnMin= -1256.21400145340     IErMin= 8 ErrMin= 1.02D-05
 ErrMax= 1.02D-05  0.00D+00 EMaxC= 1.00D-01 BMatC= 5.07D-07 BMatP= 1.92D-06
 IDIUse=1 WtCom= 1.00D+00 WtEn= 0.00D+00
 Coeff-Com: -0.446D-04 0.369D-02-0.947D-02-0.120D-01-0.255D-01 0.662D-02
 Coeff-Com:  0.386D+00 0.651D+00
 Coeff:     -0.446D-04 0.369D-02-0.947D-02-0.120D-01-0.255D-01 0.662D-02
 Coeff:      0.386D+00 0.651D+00
 Gap=     0.296 Goal=   None    Shift=    0.000
 RMSDP=1.38D-06 MaxDP=3.76D-04 DE=-1.70D-06 OVMax= 1.39D-04

 Cycle  10  Pass 1  IDiag  1:
 RMSU=  9.05D-07    CP:  9.31D-01  4.67D-01  1.96D+00  8.42D-01  9.27D-01
                    CP:  9.38D-01  1.16D+00  1.04D+00
 E= -1256.21400192352     Delta-E=       -0.000000470121 Rises=F Damp=F
 DIIS: error= 4.51D-06 at cycle   9 NSaved=   9.
 NSaved= 9 IEnMin= 9 EnMin= -1256.21400192352     IErMin= 9 ErrMin= 4.51D-06
 ErrMax= 4.51D-06  0.00D+00 EMaxC= 1.00D-01 BMatC= 3.45D-08 BMatP= 5.07D-07
 IDIUse=1 WtCom= 1.00D+00 WtEn= 0.00D+00
 Coeff-Com:  0.344D-05 0.854D-03-0.220D-02-0.378D-02-0.107D-01-0.118D-01
 Coeff-Com:  0.695D-01 0.237D+00 0.722D+00
 Coeff:      0.344D-05 0.854D-03-0.220D-02-0.378D-02-0.107D-01-0.118D-01
 Coeff:      0.695D-01 0.237D+00 0.722D+00
 Gap=     0.296 Goal=   None    Shift=    0.000
 RMSDP=4.58D-07 MaxDP=1.24D-04 DE=-4.70D-07 OVMax= 5.38D-05

 Cycle  11  Pass 1  IDiag  1:
 RMSU=  2.81D-07    CP:  9.31D-01  4.66D-01  1.96D+00  8.41D-01  9.28D-01
                    CP:  9.40D-01  1.17D+00  1.07D+00  9.18D-01
 E= -1256.21400195260     Delta-E=       -0.000000029073 Rises=F Damp=F
 DIIS: error= 1.96D-06 at cycle  10 NSaved=  10.
 NSaved=10 IEnMin=10 EnMin= -1256.21400195260     IErMin=10 ErrMin= 1.96D-06
 ErrMax= 1.96D-06  0.00D+00 EMaxC= 1.00D-01 BMatC= 8.59D-09 BMatP= 3.45D-08
 IDIUse=1 WtCom= 1.00D+00 WtEn= 0.00D+00
 Coeff-Com:  0.468D-05-0.640D-04 0.137D-03-0.451D-03-0.209D-02-0.676D-02
 Coeff-Com: -0.154D-01 0.319D-01 0.373D+00 0.620D+00
 Coeff:      0.468D-05-0.640D-04 0.137D-03-0.451D-03-0.209D-02-0.676D-02
 Coeff:     -0.154D-01 0.319D-01 0.373D+00 0.620D+00
 Gap=     0.296 Goal=   None    Shift=    0.000
 RMSDP=2.17D-07 MaxDP=6.15D-05 DE=-2.91D-08 OVMax= 1.93D-05

 Cycle  12  Pass 1  IDiag  1:
 RMSU=  1.19D-07    CP:  9.31D-01  4.66D-01  1.96D+00  8.41D-01  9.29D-01
                    CP:  9.38D-01  1.17D+00  1.09D+00  1.01D+00  9.68D-01
 E= -1256.21400196072     Delta-E=       -0.000000008128 Rises=F Damp=F
 DIIS: error= 6.93D-07 at cycle  11 NSaved=  11.
 NSaved=11 IEnMin=11 EnMin= -1256.21400196072     IErMin=11 ErrMin= 6.93D-07
 ErrMax= 6.93D-07  0.00D+00 EMaxC= 1.00D-01 BMatC= 6.00D-10 BMatP= 8.59D-09
 IDIUse=1 WtCom= 1.00D+00 WtEn= 0.00D+00
 Coeff-Com:  0.181D-05-0.108D-03 0.263D-03 0.187D-03 0.512D-03-0.792D-03
 Coeff-Com: -0.113D-01-0.170D-01 0.332D-01 0.210D+00 0.785D+00
 Coeff:      0.181D-05-0.108D-03 0.263D-03 0.187D-03 0.512D-03-0.792D-03
 Coeff:     -0.113D-01-0.170D-01 0.332D-01 0.210D+00 0.785D+00
 Gap=     0.296 Goal=   None    Shift=    0.000
 RMSDP=7.53D-08 MaxDP=2.19D-05 DE=-8.13D-09 OVMax= 8.69D-06

 Cycle  13  Pass 1  IDiag  1:
 RMSU=  3.99D-08    CP:  9.31D-01  4.66D-01  1.96D+00  8.41D-01  9.29D-01
                    CP:  9.37D-01  1.17D+00  1.10D+00  1.01D+00  1.06D+00
                    CP:  1.05D+00
 E= -1256.21400196142     Delta-E=       -0.000000000695 Rises=F Damp=F
 DIIS: error= 2.64D-07 at cycle  12 NSaved=  12.
 NSaved=12 IEnMin=12 EnMin= -1256.21400196142     IErMin=12 ErrMin= 2.64D-07
 ErrMax= 2.64D-07  0.00D+00 EMaxC= 1.00D-01 BMatC= 1.49D-10 BMatP= 6.00D-10
 IDIUse=1 WtCom= 1.00D+00 WtEn= 0.00D+00
 Coeff-Com:  0.702D-06-0.432D-04 0.106D-03 0.129D-03 0.532D-03 0.447D-03
 Coeff-Com: -0.303D-02-0.128D-01-0.401D-01 0.924D-02 0.384D+00 0.662D+00
 Coeff:      0.702D-06-0.432D-04 0.106D-03 0.129D-03 0.532D-03 0.447D-03
 Coeff:     -0.303D-02-0.128D-01-0.401D-01 0.924D-02 0.384D+00 0.662D+00
 Gap=     0.296 Goal=   None    Shift=    0.000
 RMSDP=2.54D-08 MaxDP=6.36D-06 DE=-6.95D-10 OVMax= 3.85D-06

 Cycle  14  Pass 1  IDiag  1:
 RMSU=  1.44D-08    CP:  9.31D-01  4.66D-01  1.96D+00  8.41D-01  9.29D-01
                    CP:  9.37D-01  1.17D+00  1.10D+00  1.02D+00  1.07D+00
                    CP:  1.12D+00  9.07D-01
 E= -1256.21400196153     Delta-E=       -0.000000000111 Rises=F Damp=F
 DIIS: error= 1.08D-07 at cycle  13 NSaved=  13.
 NSaved=13 IEnMin=13 EnMin= -1256.21400196153     IErMin=13 ErrMin= 1.08D-07
 ErrMax= 1.08D-07  0.00D+00 EMaxC= 1.00D-01 BMatC= 1.37D-11 BMatP= 1.49D-10
 IDIUse=1 WtCom= 1.00D+00 WtEn= 0.00D+00
 Coeff-Com:  0.237D-06-0.724D-05 0.169D-04 0.286D-04 0.172D-03 0.221D-03
 Coeff-Com: -0.437D-04-0.335D-02-0.202D-01-0.191D-01 0.687D-01 0.277D+00
 Coeff-Com:  0.696D+00
 Coeff:      0.237D-06-0.724D-05 0.169D-04 0.286D-04 0.172D-03 0.221D-03
 Coeff:     -0.437D-04-0.335D-02-0.202D-01-0.191D-01 0.687D-01 0.277D+00
 Coeff:      0.696D+00
 Gap=     0.296 Goal=   None    Shift=    0.000
 RMSDP=9.03D-09 MaxDP=2.41D-06 DE=-1.11D-10 OVMax= 1.48D-06

 Cycle  15  Pass 1  IDiag  1:
 RMSU=  4.82D-09    CP:  9.31D-01  4.66D-01  1.96D+00  8.41D-01  9.29D-01
                    CP:  9.37D-01  1.17D+00  1.10D+00  1.02D+00  1.08D+00
                    CP:  1.13D+00  9.58D-01  9.53D-01
 E= -1256.21400196159     Delta-E=       -0.000000000064 Rises=F Damp=F
 DIIS: error= 2.31D-08 at cycle  14 NSaved=  14.
 NSaved=14 IEnMin=14 EnMin= -1256.21400196159     IErMin=14 ErrMin= 2.31D-08
 ErrMax= 2.31D-08  0.00D+00 EMaxC= 1.00D-01 BMatC= 2.31D-12 BMatP= 1.37D-11
 IDIUse=1 WtCom= 1.00D+00 WtEn= 0.00D+00
 Coeff-Com:  0.419D-07 0.289D-05-0.762D-05-0.611D-05 0.530D-05 0.231D-04
 Coeff-Com:  0.415D-03 0.246D-03-0.431D-02-0.110D-01-0.230D-01 0.399D-01
 Coeff-Com:  0.333D+00 0.665D+00
 Coeff:      0.419D-07 0.289D-05-0.762D-05-0.611D-05 0.530D-05 0.231D-04
 Coeff:      0.415D-03 0.246D-03-0.431D-02-0.110D-01-0.230D-01 0.399D-01
 Coeff:      0.333D+00 0.665D+00
 Gap=     0.296 Goal=   None    Shift=    0.000
 RMSDP=4.17D-09 MaxDP=1.20D-06 DE=-6.37D-11 OVMax= 5.99D-07

 Cycle  16  Pass 1  IDiag  1:
 RMSU=  2.05D-09    CP:  9.31D-01  4.66D-01  1.96D+00  8.41D-01  9.29D-01
                    CP:  9.37D-01  1.17D+00  1.10D+00  1.02D+00  1.08D+00
                    CP:  1.14D+00  9.78D-01  1.03D+00  1.00D+00
 E= -1256.21400196164     Delta-E=       -0.000000000047 Rises=F Damp=F
 DIIS: error= 1.28D-08 at cycle  15 NSaved=  15.
 NSaved=15 IEnMin=15 EnMin= -1256.21400196164     IErMin=15 ErrMin= 1.28D-08
 ErrMax= 1.28D-08  0.00D+00 EMaxC= 1.00D-01 BMatC= 2.31D-13 BMatP= 2.31D-12
 IDIUse=1 WtCom= 1.00D+00 WtEn= 0.00D+00
 Coeff-Com: -0.217D-07 0.124D-05-0.321D-05-0.418D-05-0.147D-04-0.159D-04
 Coeff-Com:  0.136D-03 0.484D-03 0.124D-02-0.950D-03-0.161D-01-0.225D-01
 Coeff-Com:  0.253D-01 0.248D+00 0.764D+00
 Coeff:     -0.217D-07 0.124D-05-0.321D-05-0.418D-05-0.147D-04-0.159D-04
 Coeff:      0.136D-03 0.484D-03 0.124D-02-0.950D-03-0.161D-01-0.225D-01
 Coeff:      0.253D-01 0.248D+00 0.764D+00
 Gap=     0.296 Goal=   None    Shift=    0.000
 RMSDP=1.16D-09 MaxDP=1.66D-07 DE=-4.73D-11 OVMax= 3.58D-07

 SCF Done:  E(RM062X) =  -1256.21400196     A.U. after   16 cycles
            NFock= 16  Conv=0.12D-08     -V/T= 2.0060
 KE= 1.248666778438D+03 PE=-9.282580328268D+03 EE= 3.594995173199D+03
 Leave Link  502 at Fri Jan 10 10:48:34 2025, MaxMem=  4026531840 cpu:           56178.9 elap:            2813.4
 (Enter /usr/local/intel/g16/l601.exe)
 Copying SCF densities to generalized density rwf, IOpCl= 0 IROHF=0.

 **********************************************************************

            Population analysis using the SCF Density.

 **********************************************************************

 Orbital symmetries:
       Occupied  (A) (A) (A) (A) (A) (A) (A) (A) (A) (A) (A) (A)
                 (A) (A) (A) (A) (A) (A) (A) (A) (A) (A) (A) (A)
                 (A) (A) (A) (A) (A) (A) (A) (A) (A) (A) (A) (A)
                 (A) (A) (A) (A) (A) (A) (A) (A) (A) (A) (A) (A)
                 (A) (A) (A) (A) (A) (A) (A) (A) (A) (A) (A) (A)
                 (A) (A) (A) (A) (A) (A) (A) (A) (A) (A) (A) (A)
                 (A) (A) (A) (A) (A) (A) (A) (A) (A) (A) (A) (A)
                 (A) (A) (A) (A) (A) (A) (A) (A) (A) (A) (A) (A)
                 (A) (A) (A) (A) (A) (A) (A) (A) (A) (A) (A) (A)
                 (A) (A) (A)
       Virtual   (A) (A) (A) (A) (A) (A) (A) (A) (A) (A) (A) (A)
                 (A) (A) (A) (A) (A) (A) (A) (A) (A) (A) (A) (A)
                 (A) (A) (A) (A) (A) (A) (A) (A) (A) (A) (A) (A)
                 (A) (A) (A) (A) (A) (A) (A) (A) (A) (A) (A) (A)
                 (A) (A) (A) (A) (A) (A) (A) (A) (A) (A) (A) (A)
                 (A) (A) (A) (A) (A) (A) (A) (A) (A) (A) (A) (A)
                 (A) (A) (A) (A) (A) (A) (A) (A) (A) (A) (A) (A)
                 (A) (A) (A) (A) (A) (A) (A) (A) (A) (A) (A) (A)
                 (A) (A) (A) (A) (A) (A) (A) (A) (A) (A) (A) (A)
                 (A) (A) (A) (A) (A) (A) (A) (A) (A) (A) (A) (A)
                 (A) (A) (A) (A) (A) (A) (A) (A) (A) (A) (A) (A)
                 (A) (A) (A) (A) (A) (A) (A) (A) (A) (A) (A) (A)
                 (A) (A) (A) (A) (A) (A) (A) (A) (A) (A) (A) (A)
                 (A) (A) (A) (A) (A) (A) (A) (A) (A) (A) (A) (A)
                 (A) (A) (A) (A) (A) (A) (A) (A) (A) (A) (A) (A)
                 (A) (A) (A) (A) (A) (A) (A) (A) (A) (A) (A) (A)
                 (A) (A) (A) (A) (A) (A) (A) (A) (A) (A) (A) (A)
                 (A) (A) (A) (A) (A) (A) (A) (A) (A) (A) (A) (A)
                 (A) (A) (A) (A) (A) (A) (A) (A) (A) (A) (A) (A)
                 (A) (A) (A) (A) (A) (A) (A) (A) (A) (A) (A) (A)
                 (A) (A) (A) (A) (A) (A) (A) (A) (A) (A) (A) (A)
                 (A) (A) (A) (A) (A) (A) (A) (A) (A) (A) (A) (A)
                 (A) (A) (A) (A) (A) (A) (A) (A) (A) (A) (A) (A)
                 (A) (A) (A) (A) (A) (A) (A) (A) (A) (A) (A) (A)
                 (A) (A) (A) (A) (A) (A) (A) (A) (A) (A) (A) (A)
                 (A) (A) (A) (A) (A) (A) (A) (A) (A) (A) (A) (A)
                 (A) (A) (A) (A) (A) (A) (A) (A) (A) (A) (A) (A)
                 (A) (A) (A) (A) (A) (A) (A) (A) (A) (A) (A) (A)
                 (A) (A) (A) (A) (A) (A) (A) (A) (A) (A) (A) (A)
                 (A) (A) (A) (A) (A) (A) (A) (A) (A) (A) (A) (A)
                 (A) (A) (A) (A) (A) (A) (A) (A) (A) (A) (A) (A)
                 (A) (A) (A) (A) (A) (A) (A) (A) (A) (A) (A) (A)
                 (A) (A) (A) (A) (A) (A) (A) (A) (A) (A) (A) (A)
                 (A) (A) (A) (A) (A) (A) (A) (A) (A) (A) (A) (A)
                 (A) (A) (A) (A) (A) (A) (A) (A) (A) (A) (A) (A)
                 (A) (A) (A) (A) (A) (A) (A) (A) (A) (A) (A) (A)
                 (A) (A) (A) (A) (A) (A) (A) (A) (A) (A) (A) (A)
                 (A) (A) (A) (A) (A) (A) (A) (A) (A) (A) (A) (A)
                 (A) (A) (A) (A) (A) (A) (A) (A) (A) (A) (A) (A)
                 (A) (A) (A) (A) (A) (A) (A) (A) (A) (A) (A) (A)
                 (A) (A) (A) (A) (A) (A) (A) (A) (A) (A) (A) (A)
                 (A) (A) (A) (A) (A) (A) (A) (A) (A) (A) (A) (A)
                 (A) (A) (A) (A) (A) (A) (A) (A) (A) (A) (A) (A)
                 (A) (A) (A) (A) (A) (A) (A) (A) (A) (A) (A) (A)
                 (A) (A) (A) (A) (A) (A) (A) (A) (A) (A) (A) (A)
                 (A) (A) (A) (A) (A) (A) (A) (A) (A) (A) (A) (A)
                 (A) (A) (A) (A) (A) (A) (A) (A) (A) (A) (A) (A)
                 (A) (A) (A) (A) (A) (A) (A) (A) (A) (A) (A) (A)
                 (A) (A) (A) (A) (A) (A) (A) (A) (A) (A) (A) (A)
                 (A) (A) (A) (A) (A) (A) (A) (A) (A) (A) (A) (A)
                 (A) (A) (A) (A) (A) (A) (A) (A) (A) (A) (A) (A)
                 (A) (A) (A) (A) (A) (A) (A) (A) (A) (A) (A) (A)
                 (A) (A) (A) (A) (A) (A) (A) (A) (A) (A) (A) (A)
                 (A) (A) (A) (A) (A) (A) (A) (A) (A) (A) (A) (A)
                 (A) (A) (A) (A) (A) (A) (A) (A) (A) (A) (A) (A)
                 (A) (A) (A) (A) (A) (A) (A) (A) (A) (A) (A) (A)
                 (A) (A) (A) (A) (A) (A) (A) (A) (A) (A) (A) (A)
                 (A) (A) (A) (A) (A) (A) (A) (A) (A) (A) (A) (A)
                 (A) (A) (A) (A) (A) (A) (A) (A) (A) (A) (A) (A)
                 (A) (A) (A) (A) (A) (A) (A) (A) (A) (A) (A) (A)
                 (A) (A) (A) (A) (A) (A) (A) (A) (A) (A) (A) (A)
                 (A) (A) (A) (A) (A) (A) (A) (A) (A) (A) (A) (A)
                 (A) (A) (A) (A) (A) (A) (A) (A) (A) (A) (A) (A)
                 (A) (A) (A) (A) (A) (A) (A) (A) (A) (A) (A) (A)
                 (A) (A) (A) (A) (A) (A) (A) (A) (A) (A) (A) (A)
                 (A) (A) (A) (A) (A) (A) (A) (A) (A) (A) (A) (A)
                 (A) (A) (A) (A) (A) (A) (A) (A) (A) (A) (A) (A)
                 (A) (A) (A) (A) (A) (A) (A) (A) (A) (A) (A) (A)
                 (A) (A) (A) (A) (A) (A) (A) (A) (A) (A) (A) (A)
                 (A) (A) (A) (A) (A) (A) (A) (A) (A) (A) (A) (A)
                 (A) (A) (A) (A) (A) (A) (A) (A) (A) (A) (A) (A)
                 (A) (A) (A) (A) (A) (A) (A) (A) (A) (A) (A) (A)
                 (A) (A) (A) (A) (A) (A) (A) (A) (A) (A) (A) (A)
                 (A) (A) (A) (A) (A) (A) (A) (A) (A) (A) (A) (A)
                 (A) (A) (A) (A) (A) (A) (A) (A) (A) (A) (A) (A)
                 (A) (A) (A) (A) (A) (A) (A) (A) (A) (A) (A) (A)
                 (A) (A) (A) (A) (A) (A) (A) (A) (A) (A) (A) (A)
                 (A) (A) (A) (A) (A) (A) (A) (A) (A) (A) (A) (A)
                 (A) (A) (A) (A) (A) (A) (A) (A) (A) (A) (A) (A)
                 (A) (A) (A) (A) (A) (A) (A) (A) (A) (A) (A) (A)
                 (A) (A) (A) (A) (A) (A) (A) (A) (A) (A) (A) (A)
                 (A) (A) (A) (A) (A) (A) (A) (A) (A) (A) (A) (A)
                 (A) (A) (A) (A) (A) (A) (A) (A) (A) (A) (A) (A)
                 (A) (A) (A) (A) (A) (A) (A) (A) (A) (A) (A) (A)
                 (A) (A) (A) (A) (A) (A) (A) (A) (A) (A) (A) (A)
                 (A) (A) (A) (A) (A) (A) (A) (A) (A) (A) (A) (A)
                 (A) (A) (A) (A) (A) (A) (A) (A) (A)
 The electronic state is 1-A.
 Alpha  occ. eigenvalues --  -19.65342 -19.61797 -14.79457 -10.62962 -10.59644
 Alpha  occ. eigenvalues --  -10.59058 -10.58824 -10.55545 -10.55249 -10.54922
 Alpha  occ. eigenvalues --  -10.54710 -10.54693 -10.54602 -10.54583 -10.54518
 Alpha  occ. eigenvalues --  -10.54514 -10.54502 -10.54462 -10.54440 -10.54386
 Alpha  occ. eigenvalues --  -10.54351 -10.54301 -10.54167 -10.53907 -10.53234
 Alpha  occ. eigenvalues --  -10.53005 -10.53002 -10.52689 -10.52004 -10.51797
 Alpha  occ. eigenvalues --   -1.17181  -1.14687  -0.99418  -0.96471  -0.95621
 Alpha  occ. eigenvalues --   -0.92191  -0.91319  -0.87819  -0.85079  -0.84856
 Alpha  occ. eigenvalues --   -0.84231  -0.84127  -0.84006  -0.82770  -0.79880
 Alpha  occ. eigenvalues --   -0.79040  -0.77548  -0.74602  -0.72796  -0.70866
 Alpha  occ. eigenvalues --   -0.70620  -0.68929  -0.68880  -0.66163  -0.65383
 Alpha  occ. eigenvalues --   -0.64391  -0.64018  -0.59913  -0.59639  -0.58597
 Alpha  occ. eigenvalues --   -0.56626  -0.56465  -0.54684  -0.54077  -0.53777
 Alpha  occ. eigenvalues --   -0.53102  -0.52900  -0.52794  -0.51559  -0.50973
 Alpha  occ. eigenvalues --   -0.50791  -0.50384  -0.49971  -0.49655  -0.49397
 Alpha  occ. eigenvalues --   -0.48823  -0.48575  -0.48229  -0.47518  -0.47478
 Alpha  occ. eigenvalues --   -0.46148  -0.45253  -0.44927  -0.44764  -0.44317
 Alpha  occ. eigenvalues --   -0.44008  -0.43900  -0.43451  -0.43238  -0.42796
 Alpha  occ. eigenvalues --   -0.42685  -0.42407  -0.41493  -0.41349  -0.40863
 Alpha  occ. eigenvalues --   -0.40793  -0.40187  -0.39890  -0.39343  -0.38803
 Alpha  occ. eigenvalues --   -0.38401  -0.38230  -0.37589  -0.37102  -0.34321
 Alpha  occ. eigenvalues --   -0.31536  -0.31056  -0.30737  -0.30664  -0.29159
 Alpha  occ. eigenvalues --   -0.28715
 Alpha virt. eigenvalues --    0.00930   0.01328   0.01482   0.01774   0.02058
 Alpha virt. eigenvalues --    0.05017   0.06056   0.06635   0.07066   0.08036
 Alpha virt. eigenvalues --    0.08418   0.08805   0.09211   0.09300   0.09929
 Alpha virt. eigenvalues --    0.10521   0.10774   0.11015   0.11702   0.11955
 Alpha virt. eigenvalues --    0.12403   0.12643   0.12879   0.13286   0.13524
[...]
 0095,0.00000069,-0.00000003,-0.00000105,-0.00000094,-0.00000710,0.0000
 0271,0.00000560,-0.00020366,0.00028074,0.00005362,-0.00025921,-0.00049
 350,0.00123925,0.00000584,-0.00000155,0.00002579,-0.00002955,0.0000510
 8,0.00001479,-0.00002333,0.00001709,0.00000143,0.00001495,-0.00000445,
 0.00000938,0.00118564,-0.00596968,0.00120144,-0.00061168,0.00101889,-0
 .00016523,-0.00010778,0.00000811,-0.00013341,0.00020770,0.00012385,0.0
 0009058,0.00007939,0.00004913,-0.00003307,-0.00009191,0.00007971,0.000
 08970,-0.00010174,0.00028377,-0.00005454,0.00005050,0.00002013,0.00001
 303,0.04100283,-0.06489020,-0.05220465,0.00000730,0.00000775,-0.000014
 57,-0.00001346,-0.00000465,0.00003358,0.00000446,0.00003447,0.00002242
 ,-0.01144860,0.00554013,0.01644277,-0.00220553,-0.00021953,0.00195819,
 -0.04796945,0.07137900,-0.00000328,0.00000846,-0.00000041,0.00000165,-
 0.00001515,-0.00000521,-0.00000857,0.00001438,-0.00000252,0.00000583,-
 0.00000292,0.00000107,-0.00000092,0.00000311,0.00000094,0.00000239,-0.
 00000008,0.00000192,0.00000062,0.00000050,-0.00000162,0.00000904,-0.00
 000292,0.00000085,-0.00001406,0.00001631,-0.00000288,-0.00006537,-0.00
 002875,-0.00005373,0.00000550,0.00001158,0.00000916,0.00000534,-0.0000
 0845,-0.00000442,-0.00000027,-0.00000064,0.00000006,0.00000251,-0.0000
 0276,0.00000139,0.00000001,0.00000237,0.00000430,0.00000180,-0.0000042
 5,-0.00000466,0.00007391,0.00003655,-0.00000975,0.00009492,-0.00007979
 ,0.00030387,-0.00060355,-0.00019490,-0.00029765,0.00014614,0.00019120,
 -0.00002998,0.00014502,0.00008203,0.00007620,-0.00001044,0.00002782,0.
 00000694,0.00006119,0.00008547,-0.00002514,-0.00002141,-0.00002187,0.0
 0001176,-0.00259012,0.00020526,0.00378021,-0.00022245,-0.00024829,0.00
 027617,-0.00002850,-0.00003605,-0.00000552,0.00000710,0.00000220,0.000
 00320,-0.00000196,-0.00000037,-0.00000040,0.,-0.00000991,0.00000007,-0
 .00000038,0.00000153,0.00000178,-0.00000365,0.00000087,0.00000210,-0.0
 0000041,-0.00000174,-0.00000011,0.00000041,-0.00000159,0.00000087,0.00
 000023,-0.00000130,0.00000236,-0.00000258,-0.00000141,-0.00000171,0.00
 000292,-0.00001693,-0.00000224,-0.00000026,0.00000278,-0.00000014,-0.0
 0000633,0.00000315,0.00000774,-0.00000215,0.00000063,-0.00000082,0.000
 00162,-0.00000157,0.00000189,0.00000130,-0.00000191,0.00000053,-0.0000
 0012,-0.00000080,-0.00000145,-0.00000314,0.00000285,0.00000400,-0.0000
 6975,-0.00010879,0.00014456,-0.00013237,0.00105357,-0.00070994,0.00000
 023,0.00000467,-0.00000008,-0.00000632,0.00000783,0.00000415,-0.000004
 93,0.00000331,-0.00000206,0.00000128,0.00000338,0.00000062,-0.00102394
 ,0.00102470,0.00086903,0.00017842,-0.00061437,0.00000397,-0.00011314,0
 .00018336,-0.00007521,-0.00049604,0.00015211,-0.00016472,0.00004070,0.
 00000288,-0.00001297,-0.00001975,0.00001892,0.00000913,-0.00019562,0.0
 0001280,-0.00007315,0.00007103,0.00004298,-0.00000038,0.12155008,-0.05
 234717,-0.19665165,-0.00002237,-0.00000621,-0.00000462,0.00001993,-0.0
 0000302,0.00002619,-0.00000683,-0.00000582,-0.00000401,-0.00100183,0.0
 0061568,-0.00062427,0.01758045,-0.00671585,-0.02036443,-0.13334523,0.0
 5669327,0.21358346,-0.00000353,-0.00000288,-0.00000777,0.00000463,0.00
 002176,0.00000877,-0.00002444,-0.00001540,-0.00001370,-0.00003110,-0.0
 0002296,-0.00000862,0.00000440,-0.00002714,0.00000954,0.00000958,-0.00
 001146,0.00000276,-0.00000455,0.00000128,0.00000749,-0.00001217,-0.000
 00305,0.00002448,0.00005388,0.00003137,0.00000328,-0.00004288,0.000438
 00,-0.00008576,-0.00079917,-0.00002762,0.00006364,-0.00014880,-0.00024
 230,0.00042266,0.00009824,-0.00009587,-0.00001162,0.00003965,0.0001436
 2,-0.00003902,0.00010932,-0.00009398,0.00003478,-0.00025904,-0.0003748
 4,-0.00025905,0.00022094,-0.00055378,-0.00014447,-0.00280363,0.0041844
 7,0.00055654,0.00065683,0.00086009,-0.00011351,0.00014436,-0.00001524,
 -0.00008011,0.00012819,0.00033478,-0.00013547,0.00070412,0.00118223,-0
 .00012626,0.00848164,0.01860191,-0.00146114,-0.10785882,-0.11563230,0.
 00640898,0.00000229,0.00001860,0.00012530,-0.00027263,0.00019918,0.000
 00901,0.00027033,0.00020370,0.00032855,-0.00000529,-0.00000460,0.00000
 009,0.00000096,0.00000248,-0.00000141,0.00000449,-0.00000181,0.0000047
 9,-0.00000379,-0.00000768,-0.00000713,0.00001157,0.00001210,-0.0000125
 0,0.00000748,0.00000522,-0.00000038,0.00000106,0.00000461,-0.00000243,
 0.00000202,0.00000217,-0.00000349,0.00000446,0.00000293,-0.00000126,0.
 00000378,-0.00003272,0.00001881,0.00000287,0.00001049,-0.00001108,-0.0
 0000594,0.00001117,-0.00000089,0.00005759,0.00005289,-0.00000253,-0.00
 003495,0.00000304,-0.00002083,-0.00005053,0.00001380,0.00000166,-0.000
 03994,0.00001069,0.00003374,0.00004850,0.00003193,-0.00001662,0.000003
 72,0.00000307,0.00002424,-0.00002129,-0.00003626,0.00000028,0.00009572
 ,-0.00030479,0.00009079,-0.00040826,0.00026874,-0.00002365,-0.00913340
 ,-0.01840504,-0.00076289,-0.00718222,-0.01226830,0.00270215,-0.0000039
 0,-0.00000982,-0.00002701,-0.00000139,0.00000946,-0.00002767,0.0000027
 5,0.00000527,-0.00001565,0.00008829,0.00009722,0.00003859,0.00007020,-
 0.00007821,0.00016554,-0.00004767,0.00007632,-0.00000564,0.00014455,-0
 .00018010,0.00005646,0.00001284,0.00001427,-0.00002496,-0.00002019,-0.
 00001484,-0.00004437,-0.00000884,0.00001050,0.00002019,0.00000653,0.00
 000930,0.00001784,0.00000832,-0.00000678,0.00000411,0.00000144,0.00000
 188,0.00000789,-0.00000503,0.00001814,-0.00000465,0.00000390,0.0000001
 0,0.00000337,0.11777395,-0.00001641,-0.00000540,-0.00001442,0.00001260
 ,0.00000063,0.00002723,0.00001146,-0.00001657,0.00001567,-0.00001011,0
 .00000129,-0.00000726,-0.00000084,-0.00000414,-0.00000165,-0.00000392,
 0.00000238,0.00000101,0.00000171,-0.00000207,0.00000778,-0.00001153,-0
 .00000071,-0.00000665,-0.00005457,0.00000428,-0.00003920,0.00037633,0.
 00005687,0.00008669,0.00003444,-0.00001726,-0.00000100,0.00001048,0.00
 002451,0.00003269,0.00002987,-0.00002653,-0.00000684,0.00000688,0.0000
 4172,0.00002120,-0.00000883,0.00001224,-0.00000681,0.00003816,0.000004
 10,-0.00006413,0.00002217,0.00031313,-0.00031033,0.00427508,-0.0050993
 6,-0.00017014,-0.00140573,-0.00003446,0.00086017,-0.00013819,0.0002998
 5,0.00005117,0.00030710,-0.00030077,0.00009954,-0.00183984,0.00076068,
 0.00023457,-0.01287279,-0.01977493,0.00013736,-0.11112776,-0.25226893,
 0.01417985,0.00007076,-0.00029562,-0.00019174,0.00041366,-0.00026531,-
 0.00000773,-0.00047656,-0.00002694,-0.00108955,-0.00000695,-0.00001049
 ,0.00000338,-0.00000155,0.00000182,0.00000406,0.00000337,0.00000406,-0
 .00000314,0.00000064,0.00000707,0.00000501,0.00000621,-0.00000001,-0.0
 0000263,-0.00000043,0.00000348,0.00000011,-0.00000200,0.00000271,-0.00
 000125,0.00000036,0.00000059,-0.00000327,0.00000440,0.00000617,0.00000
 508,0.00000338,0.00001313,-0.00001578,-0.00001702,-0.00000549,0.000019
 39,0.00000175,0.00001229,-0.00000999,0.00001079,0.00000157,0.00001536,
 -0.00001317,0.00000308,-0.00000714,-0.00001283,0.00000453,0.00000215,-
 0.00001328,0.00000703,0.00000752,0.00000185,-0.00001255,-0.00000611,-0
 .00003580,0.00000938,-0.00001639,0.00008997,0.00008732,-0.00003963,0.0
 0004223,-0.00017121,-0.00019180,0.00082415,0.00035819,-0.00018534,0.00
 107482,0.00194740,0.00029341,-0.00120060,-0.00336423,0.00033610,-0.000
 04617,0.00001048,-0.00001788,0.00007791,0.00001189,0.00003350,0.000009
 43,0.00004227,0.00001126,-0.00008756,-0.00015268,-0.00007184,0.0002147
 0,0.00044958,0.00003897,-0.00008248,0.00017665,-0.00016125,-0.00015221
 ,0.00024443,0.00003902,-0.00001986,0.00001980,0.00001255,0.00008576,0.
 00004635,0.00016027,0.00001176,0.00001009,0.00003889,-0.00000904,-0.00
 001719,-0.00002253,0.00001199,-0.00002641,-0.00002328,-0.00000538,0.00
 001225,-0.00001341,0.00002682,-0.00006443,0.00002019,-0.00000129,-0.00
 000929,-0.00001485,0.12133669,0.27618835,0.00000197,0.00000131,0.00000
 311,0.00000108,-0.00000135,-0.00000359,0.00000386,0.00001200,0.0000010
 6,0.00000076,0.00000496,-0.00000094,-0.00000499,-0.00000288,-0.0000001
 6,0.00000016,0.00000028,0.00000487,0.00000104,-0.00000413,0.00000376,-
 0.00000139,0.00000184,-0.00000784,0.00001501,-0.00000847,0.00001518,-0
 .00023468,-0.00015426,-0.00015117,0.00008859,0.00004583,0.00005915,-0.
 00040990,0.00013055,-0.00012961,0.00019000,-0.00038973,-0.00008739,0.0
 0002940,0.00002325,0.00037878,-0.00023603,0.00035935,-0.00017334,0.000
 41409,-0.00008280,-0.00006798,-0.00029663,0.00087838,0.00025422,0.0005
 5184,-0.00073341,-0.00024051,0.00027353,0.00006350,0.00046546,-0.00003
 649,0.00001634,0.00006879,0.00005959,-0.00015129,-0.00019782,0.0003983
 1,-0.00055168,0.00021097,0.00268627,0.00326415,-0.00214581,0.00597705,
 0.01349765,-0.04805848,0.00009750,-0.00017150,-0.00003529,-0.00007642,
 0.00009793,-0.00001647,0.00049414,0.00075858,-0.00011503,0.00000080,0.
 00000145,-0.00000084,0.00000023,-0.00000077,-0.00000017,-0.00000084,0.
 ,0.00000002,0.00000135,0.00000176,0.00000045,-0.00000170,-0.00000059,0
 .00000322,0.00000049,-0.00000019,0.00000028,-0.00000046,-0.00000018,0.
 00000050,0.00000091,-0.00000012,0.00000029,-0.00000018,0.00000127,0.00
 000021,-0.00000443,-0.00000762,0.00000451,0.00000093,-0.00000854,0.000
 00499,0.00003106,0.00005028,0.00001623,0.00007618,0.00007129,0.0000432
 6,0.00000416,-0.00000614,-0.00000712,0.00000726,0.00000539,0.00001936,
 0.00001474,-0.00000405,-0.00001573,-0.00005719,-0.00002350,0.00005955,
 -0.00001239,0.00000787,-0.00000406,0.00000597,0.00001721,0.00001291,-0
 .00024681,-0.00012649,-0.00016307,0.00016201,-0.00022247,0.00024627,0.
 00992631,0.02216923,-0.00051515,-0.01175928,-0.02441500,0.00349897,0.0
 0000799,-0.00000731,-0.00000122,-0.00001974,0.00000137,0.00001044,-0.0
 0000491,-0.00001219,0.00000523,0.00001186,0.00001785,0.00002360,-0.000
 03107,-0.00030170,-0.00000900,-0.00010095,0.00013621,0.00008108,-0.000
 10297,0.00008847,-0.00002256,-0.00001109,0.00001187,0.00000305,0.00000
 702,0.00000467,0.00004386,-0.00000143,0.00004732,0.00002155,0.00000248
 ,-0.00000824,-0.00000229,0.00000428,-0.00001160,-0.00000042,0.00000082
 ,-0.00000770,0.00000037,0.00000397,-0.00001377,0.00000197,0.00000302,-
 0.00000272,-0.00000301,-0.00732058,-0.01459800,0.04722160,-0.00001389,
 -0.00000426,-0.00001254,0.00000534,0.00000072,0.00002446,0.00001733,-0
 .00001456,0.00001303,-0.00000020,0.00000615,-0.00000292,-0.00000099,0.
 00000366,-0.00000279,-0.00000480,0.00000868,-0.00000031,0.00000453,-0.
 00000034,0.00000053,-0.00000541,0.00000254,-0.00000760,-0.00005678,0.0
 0001233,-0.00003165,0.00046350,-0.00012401,-0.00007788,0.00003286,-0.0
 0007741,0.00000240,-0.00000736,0.00002308,-0.00000845,-0.00000113,0.00
 002131,-0.00000373,-0.00001661,0.00004163,-0.00001470,0.00001638,0.000
 02900,-0.00000163,0.00002694,0.00005339,0.00000627,0.00017282,-0.00003
 162,-0.00047166,-0.00175338,-0.00178810,-0.00312056,-0.00060347,0.0006
 4673,-0.00020540,0.00005147,-0.00009379,-0.00000004,-0.00015753,-0.000
 01916,-0.00023236,-0.00002864,0.00048526,0.00015179,-0.00318471,-0.011
 74122,-0.00079970,-0.00000180,-0.00081648,-0.00077501,-0.00093772,0.00
 033892,0.00001932,0.00012333,-0.00013704,0.00005954,-0.05097387,-0.034
 94442,-0.00474696,-0.00000378,-0.00000707,0.00000384,0.00000001,-0.000
 00032,0.00000319,0.00000066,0.00000331,-0.00000138,-0.00000111,0.00000
 517,0.00000083,0.00000127,-0.00000505,0.00000147,-0.00000477,-0.000000
 24,0.00000054,-0.00000263,-0.00000073,-0.00000055,-0.00000107,-0.00000
 050,-0.00000102,0.00000061,0.00000310,0.00000372,0.00000168,0.00003053
 ,-0.00000548,-0.00000552,-0.00001534,0.00002173,-0.00010836,-0.0000055
 3,-0.00000256,-0.00000196,-0.00000994,0.00001229,-0.00000706,0.0000027
 0,0.00000042,-0.00000721,-0.00000213,0.00000027,-0.00002705,0.00000434
 ,0.00001076,0.00000039,-0.00004642,0.00000418,-0.00001464,-0.00000233,
 0.00002700,0.00003063,-0.00000810,-0.00004090,-0.00002010,-0.00006145,
 -0.00004712,0.00010362,0.00001715,0.00025292,-0.00033702,-0.00021496,0
 .00023339,0.00005733,0.00015491,0.00033105,-0.00004764,0.00003278,-0.0
 0009482,0.00066163,0.00042512,0.00009983,-0.00000494,0.00002481,0.0000
 0034,-0.00002836,-0.00007532,-0.00003999,0.00532133,0.02811020,0.00472
 992,-0.00255876,-0.02011706,-0.00442328,0.00001161,-0.00006041,0.00018
 821,0.00002425,0.00000299,0.00000898,0.00043792,0.00014821,0.00006448,
 0.00002344,-0.00000165,0.00005445,0.00000330,-0.00001554,0.00000408,0.
 00000586,-0.00001898,-0.00000758,-0.00003967,0.00015809,-0.00000910,-0
 .00000094,-0.00003973,0.00000828,-0.00001407,-0.00001251,0.00001305,-0
 .00005201,0.00022501,-0.00058550,0.05343690,-0.00001217,-0.00000559,-0
 .00001055,0.00001239,0.00000325,0.00001465,0.00001776,-0.00002090,0.00
 001829,-0.00000848,0.00000699,-0.00000711,-0.00000079,0.00000007,-0.00
 000209,-0.00000617,0.00000659,-0.00000063,0.00000248,-0.00000013,0.000
 00499,-0.00001003,-0.00000091,-0.00001050,-0.00003883,-0.00000162,-0.0
 0002177,0.00037099,-0.00007178,0.00001328,0.00001728,-0.00007324,0.000
 00783,-0.00000716,0.00002624,-0.00000470,0.00000310,0.00001879,0.00000
 297,-0.00001389,0.00003309,-0.00000811,0.00001018,0.00000868,-0.000007
 44,0.00000481,0.00004733,-0.00000265,0.00006841,0.00011326,-0.00024709
 ,-0.00024396,0.00106465,-0.00099608,-0.00008775,0.00016804,0.00034045,
 -0.00003211,0.00014210,-0.00000754,0.00000694,-0.00029969,0.00011604,-
 0.00027195,-0.00011023,0.00012362,-0.00098777,-0.00509833,0.00052946,0
 .00142190,0.00016092,0.00206255,0.00055017,-0.00017870,0.00011131,0.00
 006250,0.00001413,-0.00008967,-0.03740376,-0.30514205,-0.04011803,-0.0
 0000641,-0.00000920,0.00000227,-0.00000231,0.00000225,0.00000509,0.000
 00209,0.00000708,-0.00000598,0.00000054,0.00000832,0.00000823,0.000005
 04,-0.00000402,-0.00000052,-0.00000367,0.00000256,0.00000044,-0.000002
 86,0.00000164,-0.00000144,0.00000011,0.00000027,-0.00000269,0.00000338
 ,0.00000616,0.00000611,0.00000683,0.00003492,-0.00001881,-0.00001374,-
 0.00000876,0.00001926,-0.00005425,0.00000005,0.00000066,0.00000129,-0.
 00001077,0.00001253,-0.00000802,0.00000290,-0.00000228,-0.00000749,0.0
 0000113,-0.00000033,-0.00002045,0.00000673,0.00000855,0.00000204,-0.00
 003639,-0.00000581,-0.00000721,0.00000726,-0.00004310,0.00002243,0.000
 03645,0.00000308,0.00011463,0.00017549,-0.00011993,0.00030410,0.000165
 98,-0.00028879,-0.00033775,-0.00006149,-0.00023201,0.00025936,0.000356
 73,0.00010240,0.00018544,0.00015861,-0.00007227,-0.00049038,-0.0002683
 9,0.00005815,0.00001211,0.00001465,0.00000753,-0.00000680,-0.00002627,
 -0.00000140,-0.00248600,-0.01366629,-0.00179659,-0.00049887,-0.0093259
 1,-0.00172635,0.00004931,0.00019427,-0.00002615,-0.00002078,-0.0000340
 0,0.00001488,-0.00021491,0.00000524,-0.00019398,0.00001194,0.00001066,
 0.00002563,-0.00001768,-0.00001202,-0.00002296,0.00000622,-0.00001083,
 -0.00001602,0.00002254,-0.00011761,-0.00000384,0.00000671,0.00001328,0
 .00001843,0.00003314,-0.00008031,-0.00001807,0.00023431,0.00076935,0.0
 0024099,0.03949191,0.33087931,-0.00001204,-0.00000170,-0.00000813,0.00
 000768,-0.00001192,0.00002065,0.00000965,-0.00000262,0.00000937,0.0000
 0007,0.00000338,-0.00000099,-0.00000171,0.00000327,-0.00000133,-0.0000
 0234,0.00000409,-0.00000009,0.00000241,-0.00000013,0.00000243,-0.00000
 134,-0.00000294,-0.00000698,-0.00009259,0.00002798,-0.00001946,0.00020
 384,-0.00009200,0.00027824,0.00003622,-0.00004186,0.00002303,0.0000055
 5,0.00001099,-0.00003768,0.00001080,0.00000992,-0.00001189,-0.00000522
 ,0.00001794,0.00000716,-0.00000480,0.00002430,0.00001029,0.00001853,0.
 00001764,-0.00000347,0.00069061,0.00053587,0.00074885,-0.00281661,-0.0
 0237972,-0.00707995,-0.00093548,0.00115245,-0.00016184,-0.00000127,0.0
 0004358,0.00012397,-0.00010533,-0.00022739,0.00002623,-0.00061159,-0.0
 0044513,0.00065339,-0.00428238,-0.02910547,-0.00465540,-0.00011600,-0.
 00117529,0.00060973,0.00018815,0.00039447,-0.00009230,0.00019844,-0.00
 021135,-0.00002665,-0.00448212,-0.03759641,-0.05107120,-0.00000176,-0.
 00000522,0.00000299,-0.00000077,-0.00000030,0.00000220,0.00000113,0.00
 000011,-0.00000141,0.00000160,0.00000726,0.00000336,0.00000048,-0.0000
 0157,0.00000066,-0.00000201,-0.00000002,0.00000064,-0.00000196,0.00000
 009,-0.00000011,-0.00000034,-0.00000084,-0.00000091,0.00000177,0.00000
 352,0.00000278,-0.00000010,-0.00000209,-0.00001545,-0.00001938,-0.0000
 1294,0.00002394,0.00011136,0.00004294,0.00003376,0.00000044,-0.0000134
 3,0.00000723,-0.00000809,-0.00000079,-0.00000291,-0.00000371,-0.000000
 41,0.00000238,0.00000214,-0.00000093,0.00000011,-0.00001019,0.00000720
 ,0.00000069,-0.00005274,0.00000776,0.00000825,0.00006084,0.00003601,-0
 .00005663,0.00009111,0.00040326,0.00011347,0.00052320,0.00029467,-0.00
 033078,-0.00009042,0.00018777,0.00017105,0.00037842,0.00005525,0.00034
 158,-0.00023184,-0.00011823,0.00011965,0.00019715,-0.00004114,0.000001
 20,-0.00000691,0.00002808,0.00000736,-0.00005595,-0.00011961,-0.000045
 04,0.00098740,0.00292023,-0.00039045,0.00111825,0.02244413,0.00405910,
 -0.00001316,0.00014367,0.00007681,0.00001487,-0.00002330,0.00001276,0.
 00001529,0.00004353,0.00023573,0.00003895,-0.00000173,0.00009319,0.000
 00243,-0.00002923,-0.00000857,0.00001002,-0.00004063,-0.00001609,0.000
 00691,0.00004141,-0.00001361,0.00002060,-0.00004470,0.00000500,-0.0000
 3253,0.00006280,0.00000038,-0.00037222,0.00052184,-0.00061303,0.009418
 62,0.04225362,0.05683273\\-0.00000257,-0.00000751,0.00000523,0.0000079
 9,0.00000995,0.00000021,0.00000860,-0.00000099,-0.00000049,0.00000051,
 -0.00000355,0.00000707,-0.00000690,0.00000238,0.00000059,-0.00000203,0
 .00000437,-0.00000320,0.00000185,-0.00000342,-0.00000675,0.00000026,-0
 .00000929,-0.00000424,0.00000325,-0.00001375,-0.00000378,-0.00000176,0
 .00000328,0.00000950,-0.00000177,-0.00000414,-0.00001070,0.00000636,-0
 .00000700,-0.00000334,-0.00000855,0.00000634,-0.00000477,-0.00000503,0
 .00000215,-0.00000552,-0.00000108,0.,0.00000467,0.00000288,0.00000415,
 0.00000821,0.00001419,-0.00000373,-0.00000361,0.00000651,0.00000045,-0
 .00000888,-0.00002606,0.00001015,0.00000168,-0.00000007,0.00000134,0.0
 0000858,0.00001433,0.00000348,-0.00002027,-0.00000071,0.00000028,0.000
 00568,-0.00001658,-0.00000193,0.00000851,0.00000100,0.00000357,0.00000
 321,0.00000617,-0.00000230,0.00000740,-0.00000347,-0.00000344,-0.00000
 139,0.00000416,0.00000067,0.00000116,0.00000086,0.00000033,-0.00000039
 ,0.00000061,0.00000031,-0.00000204,-0.00000125,-0.00000081,0.00000016,
 0.00000102,0.00000037,-0.00000085,-0.00000022,-0.00000071,0.00000011,-
 0.00000160,-0.00000018,-0.00000065,-0.00000123,-0.00000189,-0.00000207
 ,0.00000136,-0.00000110,-0.00000246,0.00000228,-0.00000083,-0.00000086
 ,-0.00000248,-0.00000286,0.00000137,0.00000354,0.00000096,-0.00000288,
 0.00000498,-0.00000227,0.00000015,0.00000007,-0.00000069,-0.00000164,-
 0.00000103,-0.00000051,-0.00000246,-0.00000116,0.00000063,-0.00000134,
 -0.00000276,0.00000120,-0.00000028,-0.00000063,0.00000071,-0.00000156,
 0.00000379,-0.00000121,-0.00000053,-0.00000020,0.00000093,0.00000307,-
 0.00000086,0.00000165,0.00000078,0.00000003,0.00000040,-0.00000033,0.0
 0000065,0.00000108,-0.00000336,0.00000048,0.00000132,0.00000038,-0.000
 00047,0.00000061,0.00000085,0.00000059,-0.00000023,-0.00000010,-0.0000
 0075,0.00000023,-0.00000096,-0.00000124,0.00000251,0.00000012,-0.00000
 438,0.00000423,0.00000276,-0.00000304,-0.00000049,0.00000048,-0.000002
 63,0.00000019,0.00000654,0.00000172,0.00000018,-0.00000519,0.00000069,
 0.00000029,0.00000532,0.00000034,-0.00000093,0.00000323,0.00000089,0.0
 0000106,-0.00000039,-0.00000080,-0.00000124,0.00000355,0.00000436,0.00
 000348,0.00000511,0.00000021,0.00000126,0.00000097,0.00000026,0.000001
 58,0.00000167,-0.00000264,-0.00000018,0.00000023,-0.00000083,-0.000000
 88,-0.00000132\\\@
 The archive entry for this job was punched.


 THE MORE POWERFUL THE METHOD, THE MORE CATASTROPHIC THE ERRORS.
     -- M.D. KAMEN
 Job cpu time:      11 days 23 hours 41 minutes 51.3 seconds.
 Elapsed time:       0 days 14 hours 23 minutes 25.1 seconds.
 File lengths (MBytes):  RWF=   5956 Int=      0 D2E=      0 Chk=    107 Scr=      1
 Normal termination of Gaussian 16 at Sat Jan 11 12:01:57 2025.
