 Entering Gaussian System, Link 0=g16
 Input=gjfs/data_set_3-catalyst-Mix_4_opt.gjf
 Output=gjfs/data_set_3-catalyst-Mix_4_opt.log
 Initial command:
 /usr/local/intel/g16/l1.exe "/scr/Gau-1202488.inp" -scrdir="/scr/"
 Entering Link 1 = /usr/local/intel/g16/l1.exe PID=   1202490.
  
 Copyright (c) 1988-2019, Gaussian, Inc.  All Rights Reserved.
  
 This is part of the Gaussian(R) 16 program.  It is based on
 the Gaussian(R) 09 system (copyright 2009, Gaussian, Inc.),
 the Gaussian(R) 03 system (copyright 2003, Gaussian, Inc.),
 the Gaussian(R) 98 system (copyright 1998, Gaussian, Inc.),
 the Gaussian(R) 94 system (copyright 1995, Gaussian, Inc.),
 the Gaussian 92(TM) system (copyright 1992, Gaussian, Inc.),
 the Gaussian 90(TM) system (copyright 1990, Gaussian, Inc.),
 the Gaussian 88(TM) system (copyright 1988, Gaussian, Inc.),
 the Gaussian 86(TM) system (copyright 1986, Carnegie Mellon
 University), and the Gaussian 82(TM) system (copyright 1983,
 Carnegie Mellon University). Gaussian is a federally registered
 trademark of Gaussian, Inc.
  
 This software contains proprietary and confidential information,
 including trade secrets, belonging to Gaussian, Inc.
  
 This software is provided under written license and may be
 used, copied, transmitted, or stored only in accord with that
 written license.
  
 The following legend is applicable only to US Government
 contracts under FAR:
  
                    RESTRICTED RIGHTS LEGEND
  
 Use, reproduction and disclosure by the US Government is
 subject to restrictions as set forth in subparagraphs (a)
 and (c) of the Commercial Computer Software - Restricted
 Rights clause in FAR 52.227-19.
  
 Gaussian, Inc.
 340 Quinnipiac St., Bldg. 40, Wallingford CT 06492
  
  
 ---------------------------------------------------------------
 Warning -- This program may not be used in any manner that
 competes with the business of Gaussian, Inc. or will provide
 assistance to any competitor of Gaussian, Inc.  The licensee
 of this program is prohibited from giving any competitor of
 Gaussian, Inc. access to this program.  By using this program,
 the user acknowledges that Gaussian, Inc. is engaged in the
 business of creating and licensing software in the field of
 computational chemistry and represents and warrants to the
 licensee that it is not a competitor of Gaussian, Inc. and that
 it will not use this program in any manner prohibited above.
 ---------------------------------------------------------------
  

 Cite this work as:
 Gaussian 16, Revision C.01,
 M. J. Frisch, G. W. Trucks, H. B. Schlegel, G. E. Scuseria, 
 M. A. Robb, J. R. Cheeseman, G. Scalmani, V. Barone, 
 G. A. Petersson, H. Nakatsuji, X. Li, M. Caricato, A. V. Marenich, 
 J. Bloino, B. G. Janesko, R. Gomperts, B. Mennucci, H. P. Hratchian, 
 J. V. Ortiz, A. F. Izmaylov, J. L. Sonnenberg, D. Williams-Young, 
 F. Ding, F. Lipparini, F. Egidi, J. Goings, B. Peng, A. Petrone, 
 T. Henderson, D. Ranasinghe, V. G. Zakrzewski, J. Gao, N. Rega, 
 G. Zheng, W. Liang, M. Hada, M. Ehara, K. Toyota, R. Fukuda, 
 J. Hasegawa, M. Ishida, T. Nakajima, Y. Honda, O. Kitao, H. Nakai, 
 T. Vreven, K. Throssell, J. A. Montgomery, Jr., J. E. Peralta, 
 F. Ogliaro, M. J. Bearpark, J. J. Heyd, E. N. Brothers, K. N. Kudin, 
 V. N. Staroverov, T. A. Keith, R. Kobayashi, J. Normand, 
 K. Raghavachari, A. P. Rendell, J. C. Burant, S. S. Iyengar, 
 J. Tomasi, M. Cossi, J. M. Millam, M. Klene, C. Adamo, R. Cammi, 
 J. W. Ochterski, R. L. Martin, K. Morokuma, O. Farkas, 
 J. B. Foresman, and D. J. Fox, Gaussian, Inc., Wallingford CT, 2019.
 
 ******************************************
 Gaussian 16:  ES64L-G16RevC.01  3-Jul-2019
                 9-Jan-2025 
 ******************************************
 %nprocshared=20
 Will use up to   20 processors via shared memory.
 %mem=30GB
 %chk=outputs/data_set_3-catalyst-Mix_4_opt.chk
 ----------------------------------
 #p M062X/DEF2TZVP opt freq pop=NBO
 ----------------------------------
 1/18=20,19=15,26=3,38=1/1,3;
 2/9=110,12=2,17=6,18=5,40=1/2;
 3/5=44,7=101,11=2,25=1,30=1,71=1,74=-55/1,2,3;
 4//1;
 5/5=2,38=5/2;
 6/7=2,8=2,9=2,10=2,28=1,40=1/1,7;
 7//1,2,3,16;
 1/18=20,19=15,26=3/3(2);
 2/9=110/2;
 99//99;
 2/9=110/2;
 3/5=44,7=101,11=2,25=1,30=1,71=1,74=-55/1,2,3;
 4/5=5,16=3,69=1/1;
 5/5=2,38=5/2;
 7//1,2,3,16;
 1/18=20,19=15,26=3/3(-5);
 2/9=110/2;
 6/7=2,8=2,9=2,10=2,19=2,28=1,40=1/1,7;
 99/9=1/99;
 Leave Link    1 at Thu Jan  9 23:54:36 2025, MaxMem=  4026531840 cpu:               0.9 elap:               0.1
 (Enter /usr/local/intel/g16/l101.exe)
 -----------------------------
 data_set_3-catalyst-Mix_4_opt
 -----------------------------
 Symbolic Z-matrix:
 Charge =  0 Multiplicity = 2
 O                     0.19693   0.05289  -2.04357 
 N                     0.07797  -0.39676  -0.81356 
 C                    -1.25227  -0.76491  -0.25689 
 C                    -1.08305  -2.00716   0.64383 
 C                     0.03894  -1.88685   1.71032 
 C                     0.95985  -0.67608   1.47725 
 C                     1.32828  -0.50847  -0.01204 
 C                     2.1641   -1.68215  -0.58235 
 C                     2.07471   0.82485  -0.20449 
 O                     3.20352   0.96706  -0.67815 
 O                     1.32064   1.87677   0.23875 
 C                     1.8463    3.21811  -0.00467 
 H                    -0.87909  -2.85105  -0.02519 
 H                    -2.03542  -2.20627   1.13945 
 H                     0.63216  -2.80809   1.71218 
 H                    -0.40664  -1.7844    2.70266 
 H                     1.88028  -0.78311   2.0583 
 H                     0.47406   0.23635   1.82973 
 H                     2.45141  -1.41348  -1.60322 
 H                     1.50166  -2.5534   -0.65328 
 H                     1.98126   3.37195  -1.07758 
 H                     2.80309   3.34893   0.50648 
 H                     1.09359   3.89522   0.39464 
 C                     3.41501  -2.05091   0.23104 
 H                     4.07524  -1.18781   0.35008 
 H                     3.9764   -2.8307   -0.29369 
 H                     3.15827  -2.44088   1.2226 
 C                    -2.22011  -1.03824  -1.43534 
 C                    -3.65337  -1.36798  -0.98842 
 C                    -1.80482   0.41964   0.56095 
 O                    -2.1316    0.37671   1.75426 
 O                    -1.92508   1.54029  -0.19735 
 C                    -2.3401    2.7657    0.47954 
 H                    -1.80417  -1.86722  -2.0185 
 H                    -2.22044  -0.16055  -2.08342 
 H                    -4.28981  -1.49588  -1.86933 
 H                    -4.08531  -0.56189  -0.38387 
 H                    -3.70418  -2.29275  -0.40488 
 H                    -3.33065   2.63797   0.9229 
 H                    -2.35322   3.52618  -0.29832 
 H                    -1.62052   3.01516   1.26332 
 
 ITRead=  0  0  0  0  0  0  0  0  0  0  0  0  0  0  0  0  0  0  0  0
 ITRead=  0  0  0  0  0  0  0  0  0  0  0  0  0  0  0  0  0  0  0  0
 ITRead=  0
 MicOpt= -1 -1 -1 -1 -1 -1 -1 -1 -1 -1 -1 -1 -1 -1 -1 -1 -1 -1 -1 -1
 MicOpt= -1 -1 -1 -1 -1 -1 -1 -1 -1 -1 -1 -1 -1 -1 -1 -1 -1 -1 -1 -1
 MicOpt= -1
 NAtoms=     41 NQM=       41 NQMF=       0 NMMI=      0 NMMIF=      0
                NMic=       0 NMicF=      0.
                    Isotopes and Nuclear Properties:
 (Nuclear quadrupole moments (NQMom) in fm**2, nuclear magnetic moments (NMagM)
  in nuclear magnetons)

  Atom         1           2           3           4           5           6           7           8           9          10
 IAtWgt=          16          14          12          12          12          12          12          12          12          16
 AtmWgt=  15.9949146  14.0030740  12.0000000  12.0000000  12.0000000  12.0000000  12.0000000  12.0000000  12.0000000  15.9949146
 NucSpn=           0           2           0           0           0           0           0           0           0           0
 AtZEff=  -0.0000000  -0.0000000  -0.0000000  -0.0000000  -0.0000000  -0.0000000  -0.0000000  -0.0000000  -0.0000000  -0.0000000
 NQMom=    0.0000000   2.0440000   0.0000000   0.0000000   0.0000000   0.0000000   0.0000000   0.0000000   0.0000000   0.0000000
 NMagM=    0.0000000   0.4037610   0.0000000   0.0000000   0.0000000   0.0000000   0.0000000   0.0000000   0.0000000   0.0000000
 AtZNuc=   8.0000000   7.0000000   6.0000000   6.0000000   6.0000000   6.0000000   6.0000000   6.0000000   6.0000000   8.0000000

  Atom        11          12          13          14          15          16          17          18          19          20
 IAtWgt=          16          12           1           1           1           1           1           1           1           1
 AtmWgt=  15.9949146  12.0000000   1.0078250   1.0078250   1.0078250   1.0078250   1.0078250   1.0078250   1.0078250   1.0078250
 NucSpn=           0           0           1           1           1           1           1           1           1           1
 AtZEff=  -0.0000000  -0.0000000  -0.0000000  -0.0000000  -0.0000000  -0.0000000  -0.0000000  -0.0000000  -0.0000000  -0.0000000
 NQMom=    0.0000000   0.0000000   0.0000000   0.0000000   0.0000000   0.0000000   0.0000000   0.0000000   0.0000000   0.0000000
 NMagM=    0.0000000   0.0000000   2.7928460   2.7928460   2.7928460   2.7928460   2.7928460   2.7928460   2.7928460   2.7928460
 AtZNuc=   8.0000000   6.0000000   1.0000000   1.0000000   1.0000000   1.0000000   1.0000000   1.0000000   1.0000000   1.0000000

  Atom        21          22          23          24          25          26          27          28          29          30
 IAtWgt=           1           1           1          12           1           1           1          12          12          12
 AtmWgt=   1.0078250   1.0078250   1.0078250  12.0000000   1.0078250   1.0078250   1.0078250  12.0000000  12.0000000  12.0000000
 NucSpn=           1           1           1           0           1           1           1           0           0           0
 AtZEff=  -0.0000000  -0.0000000  -0.0000000  -0.0000000  -0.0000000  -0.0000000  -0.0000000  -0.0000000  -0.0000000  -0.0000000
 NQMom=    0.0000000   0.0000000   0.0000000   0.0000000   0.0000000   0.0000000   0.0000000   0.0000000   0.0000000   0.0000000
 NMagM=    2.7928460   2.7928460   2.7928460   0.0000000   2.7928460   2.7928460   2.7928460   0.0000000   0.0000000   0.0000000
 AtZNuc=   1.0000000   1.0000000   1.0000000   6.0000000   1.0000000   1.0000000   1.0000000   6.0000000   6.0000000   6.0000000

  Atom        31          32          33          34          35          36          37          38          39          40
 IAtWgt=          16          16          12           1           1           1           1           1           1           1
 AtmWgt=  15.9949146  15.9949146  12.0000000   1.0078250   1.0078250   1.0078250   1.0078250   1.0078250   1.0078250   1.0078250
 NucSpn=           0           0           0           1           1           1           1           1           1           1
 AtZEff=  -0.0000000  -0.0000000  -0.0000000  -0.0000000  -0.0000000  -0.0000000  -0.0000000  -0.0000000  -0.0000000  -0.0000000
 NQMom=    0.0000000   0.0000000   0.0000000   0.0000000   0.0000000   0.0000000   0.0000000   0.0000000   0.0000000   0.0000000
 NMagM=    0.0000000   0.0000000   0.0000000   2.7928460   2.7928460   2.7928460   2.7928460   2.7928460   2.7928460   2.7928460
 AtZNuc=   8.0000000   8.0000000   6.0000000   1.0000000   1.0000000   1.0000000   1.0000000   1.0000000   1.0000000   1.0000000

  Atom        41
 IAtWgt=           1
 AtmWgt=   1.0078250
 NucSpn=           1
 AtZEff=  -0.0000000
 NQMom=    0.0000000
 NMagM=    2.7928460
 AtZNuc=   1.0000000
 Leave Link  101 at Thu Jan  9 23:54:38 2025, MaxMem=  4026531840 cpu:              24.2 elap:               1.2
 (Enter /usr/local/intel/g16/l103.exe)

 GradGradGradGradGradGradGradGradGradGradGradGradGradGradGradGradGradGrad
 Berny optimization.
 Initialization pass.
                           ----------------------------
                           !    Initial Parameters    !
                           ! (Angstroms and Degrees)  !
 --------------------------                            --------------------------
 ! Name  Definition              Value          Derivative Info.                !
 --------------------------------------------------------------------------------
 ! R1    R(1,2)                  1.315          estimate D2E/DX2                !
 ! R2    R(2,3)                  1.4883         estimate D2E/DX2                !
 ! R3    R(2,7)                  1.4894         estimate D2E/DX2                !
 ! R4    R(3,4)                  1.5437         estimate D2E/DX2                !
 ! R5    R(3,28)                 1.5493         estimate D2E/DX2                !
 ! R6    R(3,30)                 1.5419         estimate D2E/DX2                !
 ! R7    R(4,5)                  1.5526         estimate D2E/DX2                !
 ! R8    R(4,13)                 1.0961         estimate D2E/DX2                !
 ! R9    R(4,14)                 1.0919         estimate D2E/DX2                !
 ! R10   R(5,6)                  1.539          estimate D2E/DX2                !
 ! R11   R(5,15)                 1.0957         estimate D2E/DX2                !
 ! R12   R(5,16)                 1.0926         estimate D2E/DX2                !
 ! R13   R(6,7)                  1.5433         estimate D2E/DX2                !
 ! R14   R(6,17)                 1.0937         estimate D2E/DX2                !
 ! R15   R(6,18)                 1.0921         estimate D2E/DX2                !
 ! R16   R(7,8)                  1.5496         estimate D2E/DX2                !
 ! R17   R(7,9)                  1.5401         estimate D2E/DX2                !
 ! R18   R(8,19)                 1.094          estimate D2E/DX2                !
 ! R19   R(8,20)                 1.0968         estimate D2E/DX2                !
 ! R20   R(8,24)                 1.537          estimate D2E/DX2                !
 ! R21   R(9,10)                 1.2324         estimate D2E/DX2                !
 ! R22   R(9,11)                 1.3681         estimate D2E/DX2                !
 ! R23   R(11,12)                1.4611         estimate D2E/DX2                !
 ! R24   R(12,21)                1.0922         estimate D2E/DX2                !
 ! R25   R(12,22)                1.0926         estimate D2E/DX2                !
 ! R26   R(12,23)                1.0884         estimate D2E/DX2                !
 ! R27   R(24,25)                1.0932         estimate D2E/DX2                !
 ! R28   R(24,26)                1.0948         estimate D2E/DX2                !
 ! R29   R(24,27)                1.096          estimate D2E/DX2                !
 ! R30   R(28,29)                1.5371         estimate D2E/DX2                !
 ! R31   R(28,34)                1.0956         estimate D2E/DX2                !
 ! R32   R(28,35)                1.091          estimate D2E/DX2                !
 ! R33   R(29,36)                1.0943         estimate D2E/DX2                !
 ! R34   R(29,37)                1.0963         estimate D2E/DX2                !
 ! R35   R(29,38)                1.0947         estimate D2E/DX2                !
 ! R36   R(30,31)                1.238          estimate D2E/DX2                !
 ! R37   R(30,32)                1.3584         estimate D2E/DX2                !
 ! R38   R(32,33)                1.4602         estimate D2E/DX2                !
 ! R39   R(33,39)                1.0927         estimate D2E/DX2                !
 ! R40   R(33,40)                1.0879         estimate D2E/DX2                !
 ! R41   R(33,41)                1.0929         estimate D2E/DX2                !
 ! A1    A(1,2,3)              121.0174         estimate D2E/DX2                !
 ! A2    A(1,2,7)              116.9414         estimate D2E/DX2                !
 ! A3    A(3,2,7)              122.04           estimate D2E/DX2                !
 ! A4    A(2,3,4)              108.6216         estimate D2E/DX2                !
 ! A5    A(2,3,28)             108.5122         estimate D2E/DX2                !
 ! A6    A(2,3,30)             109.188          estimate D2E/DX2                !
 ! A7    A(4,3,28)             111.7361         estimate D2E/DX2                !
 ! A8    A(4,3,30)             110.3665         estimate D2E/DX2                !
 ! A9    A(28,3,30)            108.3689         estimate D2E/DX2                !
 ! A10   A(3,4,5)              114.6855         estimate D2E/DX2                !
 ! A11   A(3,4,13)             106.4889         estimate D2E/DX2                !
 ! A12   A(3,4,14)             108.419          estimate D2E/DX2                !
 ! A13   A(5,4,13)             110.1486         estimate D2E/DX2                !
 ! A14   A(5,4,14)             109.4282         estimate D2E/DX2                !
 ! A15   A(13,4,14)            107.3946         estimate D2E/DX2                !
 ! A16   A(4,5,6)              112.9144         estimate D2E/DX2                !
 ! A17   A(4,5,15)             109.1022         estimate D2E/DX2                !
 ! A18   A(4,5,16)             109.6593         estimate D2E/DX2                !
 ! A19   A(6,5,15)             109.7399         estimate D2E/DX2                !
 ! A20   A(6,5,16)             107.9273         estimate D2E/DX2                !
 ! A21   A(15,5,16)            107.3424         estimate D2E/DX2                !
 ! A22   A(5,6,7)              111.9897         estimate D2E/DX2                !
 ! A23   A(5,6,17)             110.251          estimate D2E/DX2                !
 ! A24   A(5,6,18)             110.0134         estimate D2E/DX2                !
 ! A25   A(7,6,17)             108.8071         estimate D2E/DX2                !
 ! A26   A(7,6,18)             109.0806         estimate D2E/DX2                !
 ! A27   A(17,6,18)            106.5369         estimate D2E/DX2                !
 ! A28   A(2,7,6)              109.0904         estimate D2E/DX2                !
 ! A29   A(2,7,8)              108.1525         estimate D2E/DX2                !
 ! A30   A(2,7,9)              105.9436         estimate D2E/DX2                !
 ! A31   A(6,7,8)              113.6812         estimate D2E/DX2                !
 ! A32   A(6,7,9)              109.287          estimate D2E/DX2                !
 ! A33   A(8,7,9)              110.3837         estimate D2E/DX2                !
 ! A34   A(7,8,19)             107.4011         estimate D2E/DX2                !
 ! A35   A(7,8,20)             107.4384         estimate D2E/DX2                !
 ! A36   A(7,8,24)             115.2092         estimate D2E/DX2                !
 ! A37   A(19,8,20)            107.0585         estimate D2E/DX2                !
 ! A38   A(19,8,24)            109.8158         estimate D2E/DX2                !
 ! A39   A(20,8,24)            109.5853         estimate D2E/DX2                !
 ! A40   A(7,9,10)             126.2881         estimate D2E/DX2                !
 ! A41   A(7,9,11)             110.9804         estimate D2E/DX2                !
 ! A42   A(10,9,11)            122.7285         estimate D2E/DX2                !
 ! A43   A(9,11,12)            116.976          estimate D2E/DX2                !
 ! A44   A(11,12,21)           109.719          estimate D2E/DX2                !
 ! A45   A(11,12,22)           110.3055         estimate D2E/DX2                !
 ! A46   A(11,12,23)           105.1418         estimate D2E/DX2                !
 ! A47   A(21,12,22)           109.5403         estimate D2E/DX2                !
 ! A48   A(21,12,23)           110.9914         estimate D2E/DX2                !
 ! A49   A(22,12,23)           111.0693         estimate D2E/DX2                !
 ! A50   A(8,24,25)            111.0845         estimate D2E/DX2                !
 ! A51   A(8,24,26)            109.5469         estimate D2E/DX2                !
 ! A52   A(8,24,27)            111.9315         estimate D2E/DX2                !
 ! A53   A(25,24,26)           107.7492         estimate D2E/DX2                !
 ! A54   A(25,24,27)           108.8991         estimate D2E/DX2                !
 ! A55   A(26,24,27)           107.4764         estimate D2E/DX2                !
 ! A56   A(3,28,29)            113.5274         estimate D2E/DX2                !
 ! A57   A(3,28,34)            107.5304         estimate D2E/DX2                !
 ! A58   A(3,28,35)            108.0654         estimate D2E/DX2                !
 ! A59   A(29,28,34)           110.2698         estimate D2E/DX2                !
 ! A60   A(29,28,35)           110.1822         estimate D2E/DX2                !
 ! A61   A(34,28,35)           107.0158         estimate D2E/DX2                !
 ! A62   A(28,29,36)           109.4711         estimate D2E/DX2                !
 ! A63   A(28,29,37)           111.7147         estimate D2E/DX2                !
 ! A64   A(28,29,38)           112.303          estimate D2E/DX2                !
 ! A65   A(36,29,37)           107.5005         estimate D2E/DX2                !
 ! A66   A(36,29,38)           107.6619         estimate D2E/DX2                !
 ! A67   A(37,29,38)           107.994          estimate D2E/DX2                !
 ! A68   A(3,30,31)            125.3966         estimate D2E/DX2                !
 ! A69   A(3,30,32)            111.6799         estimate D2E/DX2                !
 ! A70   A(31,30,32)           122.9091         estimate D2E/DX2                !
 ! A71   A(30,32,33)           117.3046         estimate D2E/DX2                !
 ! A72   A(32,33,39)           110.3432         estimate D2E/DX2                !
 ! A73   A(32,33,40)           104.9881         estimate D2E/DX2                !
 ! A74   A(32,33,41)           109.6877         estimate D2E/DX2                !
 ! A75   A(39,33,40)           111.1541         estimate D2E/DX2                !
 ! A76   A(39,33,41)           109.4241         estimate D2E/DX2                !
 ! A77   A(40,33,41)           111.1713         estimate D2E/DX2                !
 ! D1    D(1,2,3,4)            142.7475         estimate D2E/DX2                !
 ! D2    D(1,2,3,28)            21.0833         estimate D2E/DX2                !
 ! D3    D(1,2,3,30)           -96.8472         estimate D2E/DX2                !
 ! D4    D(7,2,3,4)            -37.6777         estimate D2E/DX2                !
 ! D5    D(7,2,3,28)          -159.3419         estimate D2E/DX2                !
 ! D6    D(7,2,3,30)            82.7276         estimate D2E/DX2                !
 ! D7    D(1,2,7,6)            164.8501         estimate D2E/DX2                !
 ! D8    D(1,2,7,8)            -71.0419         estimate D2E/DX2                !
 ! D9    D(1,2,7,9)             47.3095         estimate D2E/DX2                !
 ! D10   D(3,2,7,6)            -14.7411         estimate D2E/DX2                !
 ! D11   D(3,2,7,8)            109.3669         estimate D2E/DX2                !
 ! D12   D(3,2,7,9)           -132.2817         estimate D2E/DX2                !
 ! D13   D(2,3,4,5)             51.0323         estimate D2E/DX2                !
 ! D14   D(2,3,4,13)           -71.0689         estimate D2E/DX2                !
 ! D15   D(2,3,4,14)           173.6423         estimate D2E/DX2                !
 ! D16   D(28,3,4,5)           170.7039         estimate D2E/DX2                !
 ! D17   D(28,3,4,13)           48.6028         estimate D2E/DX2                !
 ! D18   D(28,3,4,14)          -66.686          estimate D2E/DX2                !
 ! D19   D(30,3,4,5)           -68.6402         estimate D2E/DX2                !
 ! D20   D(30,3,4,13)          169.2587         estimate D2E/DX2                !
 ! D21   D(30,3,4,14)           53.9698         estimate D2E/DX2                !
 ! D22   D(2,3,28,29)         -177.3576         estimate D2E/DX2                !
 ! D23   D(2,3,28,34)           60.3809         estimate D2E/DX2                !
 ! D24   D(2,3,28,35)          -54.8227         estimate D2E/DX2                !
 ! D25   D(4,3,28,29)           62.9063         estimate D2E/DX2                !
 ! D26   D(4,3,28,34)          -59.3552         estimate D2E/DX2                !
 ! D27   D(4,3,28,35)         -174.5588         estimate D2E/DX2                !
 ! D28   D(30,3,28,29)         -58.9075         estimate D2E/DX2                !
 ! D29   D(30,3,28,34)         178.831          estimate D2E/DX2                !
 ! D30   D(30,3,28,35)          63.6274         estimate D2E/DX2                !
 ! D31   D(2,3,30,31)         -122.59           estimate D2E/DX2                !
 ! D32   D(2,3,30,32)           58.7614         estimate D2E/DX2                !
 ! D33   D(4,3,30,31)           -3.2603         estimate D2E/DX2                !
 ! D34   D(4,3,30,32)          178.091          estimate D2E/DX2                !
 ! D35   D(28,3,30,31)         119.3896         estimate D2E/DX2                !
 ! D36   D(28,3,30,32)         -59.259          estimate D2E/DX2                !
 ! D37   D(3,4,5,6)            -12.048          estimate D2E/DX2                !
 ! D38   D(3,4,5,15)          -134.3547         estimate D2E/DX2                !
 ! D39   D(3,4,5,16)           108.3419         estimate D2E/DX2                !
 ! D40   D(13,4,5,6)           108.0438         estimate D2E/DX2                !
 ! D41   D(13,4,5,15)          -14.2629         estimate D2E/DX2                !
 ! D42   D(13,4,5,16)         -131.5663         estimate D2E/DX2                !
 ! D43   D(14,4,5,6)          -134.1114         estimate D2E/DX2                !
 ! D44   D(14,4,5,15)          103.5819         estimate D2E/DX2                !
 ! D45   D(14,4,5,16)          -13.7216         estimate D2E/DX2                !
 ! D46   D(4,5,6,7)            -42.6968         estimate D2E/DX2                !
 ! D47   D(4,5,6,17)          -164.0001         estimate D2E/DX2                !
 ! D48   D(4,5,6,18)            78.7891         estimate D2E/DX2                !
 ! D49   D(15,5,6,7)            79.2519         estimate D2E/DX2                !
 ! D50   D(15,5,6,17)          -42.0514         estimate D2E/DX2                !
 ! D51   D(15,5,6,18)         -159.2622         estimate D2E/DX2                !
 ! D52   D(16,5,6,7)          -164.0722         estimate D2E/DX2                !
 ! D53   D(16,5,6,17)           74.6246         estimate D2E/DX2                !
 ! D54   D(16,5,6,18)          -42.5863         estimate D2E/DX2                !
 ! D55   D(5,6,7,2)             56.4472         estimate D2E/DX2                !
 ! D56   D(5,6,7,8)            -64.3353         estimate D2E/DX2                !
 ! D57   D(5,6,7,9)            171.8559         estimate D2E/DX2                !
 ! D58   D(17,6,7,2)           178.5792         estimate D2E/DX2                !
 ! D59   D(17,6,7,8)            57.7967         estimate D2E/DX2                !
 ! D60   D(17,6,7,9)           -66.0121         estimate D2E/DX2                !
 ! D61   D(18,6,7,2)           -65.5738         estimate D2E/DX2                !
 ! D62   D(18,6,7,8)           173.6437         estimate D2E/DX2                !
 ! D63   D(18,6,7,9)            49.835          estimate D2E/DX2                !
 ! D64   D(2,7,8,19)            64.2947         estimate D2E/DX2                !
 ! D65   D(2,7,8,20)           -50.5823         estimate D2E/DX2                !
 ! D66   D(2,7,8,24)          -173.0088         estimate D2E/DX2                !
 ! D67   D(6,7,8,19)          -174.3978         estimate D2E/DX2                !
 ! D68   D(6,7,8,20)            70.7253         estimate D2E/DX2                !
 ! D69   D(6,7,8,24)           -51.7012         estimate D2E/DX2                !
 ! D70   D(9,7,8,19)           -51.1865         estimate D2E/DX2                !
 ! D71   D(9,7,8,20)          -166.0634         estimate D2E/DX2                !
 ! D72   D(9,7,8,24)            71.51           estimate D2E/DX2                !
 ! D73   D(2,7,9,10)          -120.2865         estimate D2E/DX2                !
 ! D74   D(2,7,9,11)            60.3311         estimate D2E/DX2                !
 ! D75   D(6,7,9,10)           122.3044         estimate D2E/DX2                !
 ! D76   D(6,7,9,11)           -57.0779         estimate D2E/DX2                !
 ! D77   D(8,7,9,10)            -3.4268         estimate D2E/DX2                !
 ! D78   D(8,7,9,11)           177.1908         estimate D2E/DX2                !
 ! D79   D(7,8,24,25)          -56.5331         estimate D2E/DX2                !
 ! D80   D(7,8,24,26)         -175.4535         estimate D2E/DX2                !
 ! D81   D(7,8,24,27)           65.4363         estimate D2E/DX2                !
 ! D82   D(19,8,24,25)          64.8646         estimate D2E/DX2                !
 ! D83   D(19,8,24,26)         -54.0559         estimate D2E/DX2                !
 ! D84   D(19,8,24,27)        -173.1661         estimate D2E/DX2                !
 ! D85   D(20,8,24,25)        -177.8023         estimate D2E/DX2                !
 ! D86   D(20,8,24,26)          63.2773         estimate D2E/DX2                !
 ! D87   D(20,8,24,27)         -55.833          estimate D2E/DX2                !
 ! D88   D(7,9,11,12)         -173.9964         estimate D2E/DX2                !
 ! D89   D(10,9,11,12)           6.5954         estimate D2E/DX2                !
 ! D90   D(9,11,12,21)          59.0779         estimate D2E/DX2                !
 ! D91   D(9,11,12,22)         -61.6841         estimate D2E/DX2                !
 ! D92   D(9,11,12,23)         178.4988         estimate D2E/DX2                !
 ! D93   D(3,28,29,36)         177.0056         estimate D2E/DX2                !
 ! D94   D(3,28,29,37)          58.051          estimate D2E/DX2                !
 ! D95   D(3,28,29,38)         -63.4665         estimate D2E/DX2                !
 ! D96   D(34,28,29,36)        -62.2638         estimate D2E/DX2                !
 ! D97   D(34,28,29,37)        178.7816         estimate D2E/DX2                !
 ! D98   D(34,28,29,38)         57.2641         estimate D2E/DX2                !
 ! D99   D(35,28,29,36)         55.6479         estimate D2E/DX2                !
 ! D100  D(35,28,29,37)        -63.3067         estimate D2E/DX2                !
 ! D101  D(35,28,29,38)        175.1758         estimate D2E/DX2                !
 ! D102  D(3,30,32,33)        -175.3773         estimate D2E/DX2                !
 ! D103  D(31,30,32,33)          5.9349         estimate D2E/DX2                !
 ! D104  D(30,32,33,39)        -61.1406         estimate D2E/DX2                !
 ! D105  D(30,32,33,40)        179.0113         estimate D2E/DX2                !
 ! D106  D(30,32,33,41)         59.4809         estimate D2E/DX2                !
 --------------------------------------------------------------------------------
 Trust Radius=3.00D-01 FncErr=1.00D-07 GrdErr=1.00D-06 EigMax=2.50D+02 EigMin=1.00D-04
 Number of steps in this run=    234 maximum allowed number of steps=    246.
 GradGradGradGradGradGradGradGradGradGradGradGradGradGradGradGradGradGrad

 Leave Link  103 at Thu Jan  9 23:54:38 2025, MaxMem=  4026531840 cpu:               0.4 elap:               0.0
 (Enter /usr/local/intel/g16/l202.exe)
                          Input orientation:                          
 ---------------------------------------------------------------------
 Center     Atomic      Atomic             Coordinates (Angstroms)
 Number     Number       Type             X           Y           Z
 ---------------------------------------------------------------------
      1          8           0        0.196932    0.052886   -2.043571
      2          7           0        0.077973   -0.396762   -0.813555
      3          6           0       -1.252267   -0.764911   -0.256887
      4          6           0       -1.083045   -2.007156    0.643827
      5          6           0        0.038936   -1.886851    1.710318
      6          6           0        0.959853   -0.676076    1.477251
      7          6           0        1.328281   -0.508470   -0.012043
      8          6           0        2.164098   -1.682152   -0.582345
      9          6           0        2.074708    0.824852   -0.204486
     10          8           0        3.203524    0.967059   -0.678145
     11          8           0        1.320643    1.876772    0.238745
     12          6           0        1.846299    3.218111   -0.004671
     13          1           0       -0.879090   -2.851051   -0.025191
     14          1           0       -2.035417   -2.206271    1.139446
     15          1           0        0.632164   -2.808094    1.712184
     16          1           0       -0.406638   -1.784398    2.702656
     17          1           0        1.880277   -0.783113    2.058295
     18          1           0        0.474059    0.236354    1.829727
     19          1           0        2.451414   -1.413477   -1.603220
     20          1           0        1.501655   -2.553396   -0.653282
     21          1           0        1.981257    3.371952   -1.077576
     22          1           0        2.803088    3.348934    0.506478
     23          1           0        1.093585    3.895220    0.394642
     24          6           0        3.415008   -2.050908    0.231043
     25          1           0        4.075239   -1.187814    0.350075
     26          1           0        3.976399   -2.830696   -0.293688
     27          1           0        3.158269   -2.440878    1.222595
     28          6           0       -2.220107   -1.038235   -1.435342
     29          6           0       -3.653367   -1.367981   -0.988418
     30          6           0       -1.804816    0.419637    0.560946
     31          8           0       -2.131599    0.376708    1.754259
     32          8           0       -1.925082    1.540288   -0.197354
     33          6           0       -2.340101    2.765697    0.479535
     34          1           0       -1.804174   -1.867217   -2.018503
     35          1           0       -2.220435   -0.160551   -2.083420
     36          1           0       -4.289814   -1.495880   -1.869330
     37          1           0       -4.085308   -0.561888   -0.383869
     38          1           0       -3.704180   -2.292746   -0.404880
     39          1           0       -3.330653    2.637969    0.922898
     40          1           0       -2.353218    3.526175   -0.298319
     41          1           0       -1.620520    3.015164    1.263321
 ---------------------------------------------------------------------
                    Distance matrix (angstroms):
                    1          2          3          4          5
     1  O    0.000000
     2  N    1.315019   0.000000
     3  C    2.441559   1.488271   0.000000
     4  C    3.619975   2.462782   1.543727   0.000000
     5  C    4.228383   2.931181   2.606885   1.552649   0.000000
     6  C    3.675544   2.470530   2.812224   2.576781   1.538956
     7  C    2.392107   1.489352   2.604791   2.913884   2.555166
     8  C    3.002546   2.461220   3.552296   3.486124   3.132813
     9  C    2.739381   2.418730   3.687663   4.325657   3.894121
    10  O    3.426324   3.412831   4.799089   5.382215   4.885097
    11  O    3.130216   2.796519   3.720753   4.585488   4.239476
    12  C    4.110496   4.104702   5.052642   6.025365   5.680527
    13  H    3.696557   2.749731   2.131883   1.096057   2.187337
    14  H    4.496529   3.399258   2.154203   1.091924   2.175055
    15  H    4.741343   3.535676   3.406306   2.173667   1.095724
    16  H    5.125093   3.811053   3.242428   2.178514   1.092597
    17  H    4.511967   3.412490   3.895283   3.504323   2.174825
    18  H    3.887531   2.746754   2.887333   2.977292   2.170620
    19  H    2.725219   2.700093   3.993808   4.230139   4.125975
    20  H    3.229228   2.589137   3.307551   2.943050   2.858397
    21  H    3.890136   4.230296   5.314400   6.425572   6.260988
    22  H    4.915153   4.816532   5.826865   6.618806   6.041789
    23  H    4.638146   4.572999   5.257788   6.295860   6.022926
    24  C    4.467195   3.868228   4.865729   4.517166   3.689584
    25  H    4.723361   4.237680   5.378622   5.231205   4.316324
    26  H    5.065719   4.625151   5.622079   5.211058   4.517798
    27  H    5.065197   4.220491   4.944751   4.302538   3.205473
    28  C    2.720766   2.465619   1.549250   2.560207   3.964669
    29  C    4.237572   3.859630   2.581494   3.111161   4.602771
    30  C    3.305300   2.469950   1.541854   2.533209   3.168653
    31  O    4.466590   3.474785   2.474111   2.831136   3.136376
    32  O    3.181796   2.853786   2.402117   3.741787   4.386555
    33  C    4.490205   4.185727   3.767080   4.938351   5.368505
    34  H    2.773418   2.675185   2.150109   2.761813   4.159513
    35  H    2.427098   2.636481   2.153793   3.484463   4.741025
    36  H    4.749729   4.626044   3.515819   4.106182   5.630703
    37  H    4.633588   4.188652   2.843143   3.486910   4.811500
    38  H    4.837972   4.250465   2.892760   2.837551   4.318533
    39  H    5.284548   4.882990   4.158266   5.167863   5.696328
    40  H    4.648968   4.643877   4.430263   5.754888   6.249630
    41  H    4.797266   4.340453   4.090918   5.088846   5.194550
                    6          7          8          9         10
     6  C    0.000000
     7  C    1.543317   0.000000
     8  C    2.589272   1.549633   0.000000
     9  C    2.514742   1.540109   2.536895   0.000000
    10  O    3.518478   2.477380   2.847438   1.232397   0.000000
    11  O    2.860262   2.398402   3.748539   1.368066   2.283310
    12  C    4.259879   3.762420   4.944419   2.412423   2.713459
    13  H    3.220180   3.218749   3.307225   4.719039   5.627793
    14  H    3.380422   3.939914   4.568938   5.280813   6.389066
    15  H    2.169810   2.957331   2.979837   4.353488   5.155322
    16  H    2.144130   3.465188   4.172573   4.627822   5.659823
    17  H    1.093732   2.160192   2.803891   2.782720   3.507448
    18  H    1.092137   2.162539   3.514966   2.654511   3.778006
    19  H    3.501116   2.147629   1.094040   2.666173   2.662402
    20  H    2.890856   2.150109   1.096781   3.455773   3.910317
    21  H    4.894582   4.076691   5.081599   2.694204   2.727085
    22  H    4.532176   4.162149   5.187068   2.721580   2.690169
    23  H    4.699646   4.428652   5.762602   3.278524   3.765215
    24  C    3.077496   2.606268   1.536996   3.202512   3.159030
    25  H    3.352317   2.852791   2.183171   2.891451   2.541771
    26  H    4.108304   3.533353   2.164928   4.121579   3.894623
    27  H    2.830620   2.933835   2.195871   3.725004   3.902422
    28  C    4.327413   3.859726   4.512592   4.840613   5.831837
    29  C    5.276368   5.148678   5.840077   6.183357   7.250216
    30  C    3.111848   3.317529   4.634319   3.975021   5.188303
    31  O    3.277524   3.984235   5.305811   4.661602   5.893101
    32  O    4.004925   3.849171   5.220511   4.063277   5.182890
    33  C    4.871441   4.941543   6.418626   4.870863   5.941978
    34  H    4.612912   3.960347   4.224214   5.058025   5.908191
    35  H    4.801914   4.123716   4.877768   4.790581   5.715386
    36  H    6.279386   5.998957   6.583617   6.976005   7.977161
    37  H    5.378704   5.426606   6.352122   6.316726   7.453278
    38  H    5.282920   5.353842   5.902627   6.569256   7.643126
    39  H    5.449646   5.699110   7.149929   5.811739   6.931865
    40  H    5.638085   5.469346   6.900253   5.187724   6.129496
    41  H    4.508807   4.768436   6.308296   4.539453   5.588866
                   11         12         13         14         15
    11  O    0.000000
    12  C    1.461080   0.000000
    13  H    5.221187   6.653036   0.000000
    14  H    5.361496   6.767617   1.763296   0.000000
    15  H    4.959133   6.382544   2.303086   2.793959   0.000000
    16  H    4.739042   6.118042   2.966835   2.296633   1.762980
    17  H    3.270924   4.501864   4.028820   4.266418   2.403773
    18  H    2.436986   3.760177   3.847571   3.569366   3.050816
    19  H    3.936650   4.936915   3.955888   5.318119   4.030699
    20  H    4.522706   5.818055   2.480130   3.980609   2.533045
    21  H    2.098732   1.092248   6.929276   7.222564   6.913449
    22  H    2.106320   1.092627   7.230555   7.394057   6.638948
    23  H    2.037153   1.088350   7.041298   6.897360   6.847134
    24  C    4.451190   5.502633   4.375519   5.527790   3.242118
    25  H    4.122121   4.950373   5.239519   6.245036   4.041709
    26  H    5.431094   6.419418   4.862950   6.211740   3.899736
    27  H    4.794469   5.937306   4.245642   5.199647   2.599183
    28  C    4.882289   6.057967   2.659540   2.833364   4.601605
    29  C    6.064250   7.228162   3.289972   2.801481   5.266209
    30  C    3.463459   4.634870   3.449337   2.698746   4.205053
    31  O    4.057702   5.195294   3.892769   2.656883   4.217004
    32  O    3.292132   4.132255   4.517477   3.979436   5.393910
    33  C    3.774813   4.238523   5.825561   5.024816   6.435909
    34  H    5.373742   6.575867   2.407697   3.184505   4.554011
    35  H    4.699188   5.681098   3.643392   3.821788   5.436305
    36  H    6.877208   7.959306   4.107356   3.826185   6.226959
    37  H    5.963138   7.043873   3.955850   3.037522   5.629691
    38  H    6.561096   7.831828   2.904652   2.275344   4.852981
    39  H    4.762567   5.291293   6.085916   5.019083   6.781334
    40  H    4.062785   4.221028   6.551081   5.918539   7.285437
    41  H    3.316042   3.697002   6.051649   5.239358   6.259904
                   16         17         18         19         20
    16  H    0.000000
    17  H    2.578324   0.000000
    18  H    2.370880   1.751858   0.000000
    19  H    5.181372   3.759022   4.291503   0.000000
    20  H    3.936402   3.260354   3.873499   1.761772   0.000000
    21  H    6.824965   5.206577   4.533876   4.837115   5.959848
    22  H    6.440236   4.509271   4.106521   5.220638   6.154370
    23  H    6.311550   5.027268   3.978766   5.832445   6.545939
    24  C    4.559043   2.702139   4.054200   2.167799   2.166897
    25  H    5.096839   2.810633   4.145615   2.550116   3.081375
    26  H    5.411454   3.757412   5.116842   2.459464   2.516061
    27  H    3.915368   2.253851   3.839422   3.088758   2.505184
    28  C    4.579133   5.392934   4.420835   4.689573   4.093757
    29  C    4.933425   6.343954   5.248950   6.135829   5.300168
    30  C    3.376328   4.155547   2.614702   5.114628   4.609341
    31  O    2.923239   4.187215   2.610526   5.956630   5.251885
    32  O    4.665755   4.996689   3.400762   5.463964   5.358045
    33  C    5.420693   5.735689   4.017473   6.690439   6.658462
    34  H    4.924359   5.600959   4.942088   4.299810   3.641864
    35  H    5.369661   5.861504   4.767657   4.860719   4.650264
    36  H    6.005444   7.348762   6.275201   6.746982   6.011508
    37  H    4.955177   6.449908   5.130792   6.703787   5.937410
    38  H    4.559493   6.287478   5.370987   6.332493   5.218272
    39  H    5.592382   6.336144   4.589763   7.498519   7.265385
    40  H    6.402906   6.484294   4.831666   7.013374   7.207443
    41  H    5.155676   5.226325   3.525601   6.664125   6.665599
                   21         22         23         24         25
    21  H    0.000000
    22  H    1.784703   0.000000
    23  H    1.796997   1.798148   0.000000
    24  C    5.759821   5.441379   6.385312   0.000000
    25  H    5.216744   4.714331   5.893172   1.093163   0.000000
    26  H    6.562615   6.340722   7.349991   1.094793   1.767275
    27  H    6.361221   5.844733   6.715249   1.095978   1.781094
    28  C    6.101574   6.946251   6.218390   5.962958   6.545339
    29  C    7.363688   8.134483   7.221336   7.205234   7.845723
    30  C    5.072994   5.460451   4.528583   5.784375   6.099460
    31  O    5.822917   5.894253   4.962892   6.243265   6.553190
    32  O    4.403325   5.110985   3.874082   6.449556   6.614081
    33  C    4.633171   5.176223   3.615692   7.508842   7.536816
    34  H    6.531747   7.403420   6.886651   5.686305   6.374892
    35  H    5.580727   6.652807   5.794204   6.378746   6.827348
    36  H    7.978032   8.912123   7.947988   8.005242   8.659952
    37  H    7.263576   7.971025   6.876978   7.671378   8.217359
    38  H    8.053913   8.660466   7.870750   7.151624   7.893680
    39  H    5.723374   6.188833   4.629645   8.244281   8.355356
    40  H    4.406665   5.221743   3.535087   8.040927   7.997948
    41  H    4.310440   4.500280   2.982527   7.217148   7.137276
                   26         27         28         29         30
    26  H    0.000000
    27  H    1.766468   0.000000
    28  C    6.550800   6.161085   0.000000
    29  C    7.799712   7.241414   1.537110   0.000000
    30  C    6.687115   5.766501   2.506596   3.002207   0.000000
    31  O    7.196469   6.016989   3.490480   3.589150   1.237993
    32  O    7.344539   6.611081   2.875489   3.474303   1.358433
    33  C    8.474412   7.608721   4.260405   4.578957   2.407728
    34  H    6.108871   5.954800   1.095577   2.174816   3.447210
    35  H    6.980943   6.712681   1.091024   2.170302   2.738983
    36  H    8.520250   8.119542   2.163671   1.094271   3.968710
    37  H    8.375365   7.653805   2.193508   1.096284   2.656447
    38  H    7.700198   7.054348   2.199573   1.094664   3.449264
    39  H    9.207572   8.245642   4.506560   4.450271   2.716650
    40  H    8.970724   8.264102   4.705781   5.110713   3.269504
    41  H    8.241593   7.253060   4.906356   5.330549   2.695191
                   31         32         33         34         35
    31  O    0.000000
    32  O    2.281526   0.000000
    33  C    2.715817   1.460153   0.000000
    34  H    4.401834   3.865526   5.290681   0.000000
    35  H    3.876122   2.556821   3.891784   1.757895   0.000000
    36  H    4.614637   4.195924   5.242097   2.517648   2.472098
    37  H    3.044591   3.020018   3.855390   3.095074   2.554857
    38  H    3.776358   4.230887   5.313261   2.528809   3.092774
    39  H    2.691132   2.106062   1.092739   5.592734   4.254673
    40  H    3.765811   2.034021   1.087913   5.687632   4.098313
    41  H    2.731972   2.097996   1.092864   5.885724   4.652498
                   36         37         38         39         40
    36  H    0.000000
    37  H    1.766567   0.000000
    38  H    1.767081   1.772447   0.000000
    39  H    5.079885   3.537828   5.120007   0.000000
    40  H    5.607095   4.440688   5.974638   1.798794   0.000000
    41  H    6.106402   4.645828   5.941249   1.784018   1.799083
                   41
    41  H    0.000000
 Stoichiometry    C13H22NO5(2)
 Framework group  C1[X(C13H22NO5)]
 Deg. of freedom   117
 Full point group                 C1      NOp   1
 Largest Abelian subgroup         C1      NOp   1
 Largest concise Abelian subgroup C1      NOp   1
                         Standard orientation:                         
 ---------------------------------------------------------------------
 Center     Atomic      Atomic             Coordinates (Angstroms)
 Number     Number       Type             X           Y           Z
 ---------------------------------------------------------------------
      1          8           0        0.196932    0.052886   -2.043571
      2          7           0        0.077973   -0.396762   -0.813555
      3          6           0       -1.252267   -0.764911   -0.256887
      4          6           0       -1.083045   -2.007156    0.643827
      5          6           0        0.038936   -1.886851    1.710318
      6          6           0        0.959853   -0.676076    1.477251
      7          6           0        1.328281   -0.508470   -0.012043
      8          6           0        2.164098   -1.682152   -0.582345
      9          6           0        2.074708    0.824852   -0.204486
     10          8           0        3.203524    0.967059   -0.678145
     11          8           0        1.320643    1.876772    0.238745
     12          6           0        1.846299    3.218111   -0.004671
     13          1           0       -0.879090   -2.851051   -0.025191
     14          1           0       -2.035417   -2.206271    1.139446
     15          1           0        0.632164   -2.808094    1.712184
     16          1           0       -0.406638   -1.784398    2.702656
     17          1           0        1.880277   -0.783113    2.058295
     18          1           0        0.474059    0.236354    1.829727
     19          1           0        2.451414   -1.413477   -1.603220
     20          1           0        1.501655   -2.553396   -0.653282
     21          1           0        1.981257    3.371952   -1.077576
     22          1           0        2.803088    3.348934    0.506478
     23          1           0        1.093585    3.895220    0.394642
     24          6           0        3.415008   -2.050908    0.231043
     25          1           0        4.075239   -1.187814    0.350075
     26          1           0        3.976399   -2.830696   -0.293688
     27          1           0        3.158269   -2.440878    1.222595
     28          6           0       -2.220107   -1.038235   -1.435342
     29          6           0       -3.653367   -1.367981   -0.988418
     30          6           0       -1.804816    0.419637    0.560946
     31          8           0       -2.131599    0.376708    1.754259
     32          8           0       -1.925082    1.540288   -0.197354
     33          6           0       -2.340101    2.765697    0.479535
     34          1           0       -1.804174   -1.867217   -2.018503
     35          1           0       -2.220435   -0.160551   -2.083420
     36          1           0       -4.289814   -1.495880   -1.869330
     37          1           0       -4.085308   -0.561888   -0.383869
     38          1           0       -3.704180   -2.292746   -0.404880
     39          1           0       -3.330653    2.637969    0.922898
     40          1           0       -2.353218    3.526175   -0.298319
     41          1           0       -1.620520    3.015164    1.263321
 ---------------------------------------------------------------------
 Rotational constants (GHZ):           0.5140951           0.3502526           0.2736453
 Leave Link  202 at Thu Jan  9 23:54:38 2025, MaxMem=  4026531840 cpu:               0.1 elap:               0.0
 (Enter /usr/local/intel/g16/l301.exe)
 Standard basis: def2TZVP (5D, 7F)
 Ernie: Thresh=  0.10000D-02 Tol=  0.10000D-05 Strict=F.
 There are   816 symmetry adapted cartesian basis functions of A   symmetry.
 There are   721 symmetry adapted basis functions of A   symmetry.
   721 basis functions,  1145 primitive gaussians,   816 cartesian basis functions
    74 alpha electrons       73 beta electrons
       nuclear repulsion energy      1699.1546761347 Hartrees.
 IExCor= 4336 DFT=T Ex+Corr=M062X ExCW=0 ScaHFX=  0.540000
 ScaDFX=  1.000000  1.000000  1.000000  1.000000 ScalE2=  1.000000  1.000000
 IRadAn=      5 IRanWt=     -1 IRanGd=            0 ICorTp=0 IEmpDi=  4
 NAtoms=   41 NActive=   41 NUniq=   41 SFac= 1.00D+00 NAtFMM=   60 NAOKFM=F Big=F
 Integral buffers will be    131072 words long.
 Raffenetti 2 integral format.
 Two-electron integral symmetry is turned on.
 Leave Link  301 at Thu Jan  9 23:54:38 2025, MaxMem=  4026531840 cpu:               1.3 elap:               0.1
 (Enter /usr/local/intel/g16/l302.exe)
 NPDir=0 NMtPBC=     1 NCelOv=     1 NCel=       1 NClECP=     1 NCelD=      1
         NCelK=      1 NCelE2=     1 NClLst=     1 CellRange=     0.0.
 One-electron integrals computed using PRISM.
 One-electron integral symmetry used in STVInt
   1 Symmetry operations used in ECPInt.
 ECPInt:  NShTT=   44253 NPrTT=  131812 LenC2=   40807 LenP2D=   88189.
 LDataN:  DoStor=T MaxTD1= 6 Len=  172
 NBasis=   721 RedAO= T EigKep=  2.08D-05  NBF=   721
 NBsUse=   721 1.00D-06 EigRej= -1.00D+00 NBFU=   721
 Precomputing XC quadrature grid using
 IXCGrd= 4 IRadAn=           5 IRanWt=          -1 IRanGd=           0 AccXCQ= 0.00D+00.
 Generated NRdTot=       0 NPtTot=           0 NUsed=           0 NTot=          32
 NSgBfM=   808   807   807   807   808 MxSgAt=    41 MxSgA2=    41.
 Leave Link  302 at Thu Jan  9 23:54:40 2025, MaxMem=  4026531840 cpu:              38.9 elap:               2.0
 (Enter /usr/local/intel/g16/l303.exe)
 DipDrv:  MaxL=1.
 Leave Link  303 at Thu Jan  9 23:54:41 2025, MaxMem=  4026531840 cpu:               4.6 elap:               0.3
 (Enter /usr/local/intel/g16/l401.exe)
 ExpMin= 9.52D-02 ExpMax= 2.70D+04 ExpMxC= 9.22D+02 IAcc=3 IRadAn=         5 AccDes= 0.00D+00
 Harris functional with IExCor= 1009 and IRadAn=       5 diagonalized for initial guess.
 HarFok:  IExCor= 1009 AccDes= 0.00D+00 IRadAn=         5 IDoV= 1 UseB2=F ITyADJ=14
 ICtDFT=  3500011 ScaDFX=  1.000000  1.000000  1.000000  1.000000
 FoFCou: FMM=F IPFlag=           0 FMFlag=      100000 FMFlg1=           0
         NFxFlg=           0 DoJE=T BraDBF=F KetDBF=T FulRan=T
         wScrn=  0.000000 ICntrl=       500 IOpCl=  0 I1Cent=   200000004 NGrid=           0
         NMat0=    1 NMatS0=      1 NMatT0=    0 NMatD0=    1 NMtDS0=    0 NMtDT0=    0
 Petite list used in FoFCou.
 Harris En= -938.997035602975    
 JPrj=0 DoOrth=F DoCkMO=F.
 Initial guess <Sx>= 0.0000 <Sy>= 0.0000 <Sz>= 0.5000 <S**2>= 0.7500 S= 0.5000
 Leave Link  401 at Thu Jan  9 23:54:46 2025, MaxMem=  4026531840 cpu:             111.3 elap:               5.6
 (Enter /usr/local/intel/g16/l502.exe)
 Integral symmetry usage will be decided dynamically.
 UHF open shell SCF:
 Using DIIS extrapolation, IDIIS=  1040.
 NGot=  4026531840 LenX=  4025175514 LenY=  4024508842
 Requested convergence on RMS density matrix=1.00D-08 within 128 cycles.
 Requested convergence on MAX density matrix=1.00D-06.
 Requested convergence on             energy=1.00D-06.
 No special actions if energy rises.
 Fock matrices will be formed incrementally for  20 cycles.
 Integral accuracy reduced to 1.0D-05 until final iterations.

 Cycle   1  Pass 0  IDiag  1:
 FoFJK:  IHMeth= 1 ICntrl=       0 DoSepK=F KAlg= 0 I1Cent=           0 FoldK=F
 IRaf= 860000000 NMat=       1 IRICut=       1 DoRegI=T DoRafI=F ISym2E= 0 IDoP0=0 IntGTp=1.
 FoFCou: FMM=F IPFlag=           0 FMFlag=      100000 FMFlg1=           0
         NFxFlg=           0 DoJE=F BraDBF=F KetDBF=F FulRan=T
         wScrn=  0.000000 ICntrl=         0 IOpCl=  1 I1Cent=           0 NGrid=           0
         NMat0=    1 NMatS0=      1 NMatT0=    0 NMatD0=    1 NMtDS0=    0 NMtDT0=    0
 Symmetry not used in FoFCou.
 E= -938.822274968240    
 DIIS: error= 1.72D-02 at cycle   1 NSaved=   1.
 NSaved= 1 IEnMin= 1 EnMin= -938.822274968240     IErMin= 1 ErrMin= 1.72D-02
 ErrMax= 1.72D-02  0.00D+00 EMaxC= 1.00D-01 BMatC= 3.17D+00 BMatP= 3.17D+00
 IDIUse=3 WtCom= 8.28D-01 WtEn= 1.72D-01
 Coeff-Com:  0.100D+01
 Coeff-En:   0.100D+01
 Coeff:      0.100D+01
 Gap=     0.318 Goal=   None    Shift=    0.000
 Gap=     0.207 Goal=   None    Shift=    0.000
 GapD=    0.207 DampG=1.000 DampE=0.500 DampFc=0.5000 IDamp=-1.
 Damping current iteration by 5.00D-01
 RMSDP=2.90D-03 MaxDP=5.89D-01              OVMax= 1.77D-01

 Cycle   2  Pass 0  IDiag  1:
 RMSU=  1.45D-03    CP:  9.96D-01
 E= -939.073869114842     Delta-E=       -0.251594146602 Rises=F Damp=T
 DIIS: error= 4.47D-03 at cycle   2 NSaved=   2.
 NSaved= 2 IEnMin= 2 EnMin= -939.073869114842     IErMin= 2 ErrMin= 4.47D-03
 ErrMax= 4.47D-03  0.00D+00 EMaxC= 1.00D-01 BMatC= 3.64D-01 BMatP= 3.17D+00
 IDIUse=3 WtCom= 9.55D-01 WtEn= 4.47D-02
 Coeff-Com:  0.616D-01 0.938D+00
 Coeff-En:   0.116D+00 0.884D+00
 Coeff:      0.640D-01 0.936D+00
 Gap=     0.338 Goal=   None    Shift=    0.000
 Gap=     0.351 Goal=   None    Shift=    0.000
 RMSDP=1.01D-03 MaxDP=1.20D-01 DE=-2.52D-01 OVMax= 1.33D-01

 Cycle   3  Pass 0  IDiag  1:
 RMSU=  9.87D-04    CP:  9.74D-01  8.81D-01
 E= -939.362258751975     Delta-E=       -0.288389637133 Rises=F Damp=F
 DIIS: error= 4.10D-03 at cycle   3 NSaved=   3.
 NSaved= 3 IEnMin= 3 EnMin= -939.362258751975     IErMin= 3 ErrMin= 4.10D-03
 ErrMax= 4.10D-03  0.00D+00 EMaxC= 1.00D-01 BMatC= 2.76D-01 BMatP= 3.64D-01
 IDIUse=3 WtCom= 9.59D-01 WtEn= 4.10D-02
 Coeff-Com: -0.621D-01 0.480D+00 0.582D+00
 Coeff-En:   0.000D+00 0.000D+00 0.100D+01
 Coeff:     -0.596D-01 0.460D+00 0.599D+00
 Gap=     0.296 Goal=   None    Shift=    0.000
 Gap=     0.295 Goal=   None    Shift=    0.000
 RMSDP=5.18D-04 MaxDP=9.61D-02 DE=-2.88D-01 OVMax= 5.45D-02

 Cycle   4  Pass 0  IDiag  1:
 RMSU=  3.79D-04    CP:  9.81D-01  1.07D+00  7.83D-01
 E= -939.407968169318     Delta-E=       -0.045709417343 Rises=F Damp=F
 DIIS: error= 1.61D-03 at cycle   4 NSaved=   4.
 NSaved= 4 IEnMin= 4 EnMin= -939.407968169318     IErMin= 4 ErrMin= 1.61D-03
 ErrMax= 1.61D-03  0.00D+00 EMaxC= 1.00D-01 BMatC= 4.16D-02 BMatP= 2.76D-01
 IDIUse=3 WtCom= 9.84D-01 WtEn= 1.61D-02
 Coeff-Com: -0.291D-01 0.864D-01 0.314D+00 0.628D+00
 Coeff-En:   0.000D+00 0.000D+00 0.117D+00 0.883D+00
 Coeff:     -0.286D-01 0.850D-01 0.311D+00 0.632D+00
 Gap=     0.297 Goal=   None    Shift=    0.000
 Gap=     0.302 Goal=   None    Shift=    0.000
 RMSDP=1.90D-04 MaxDP=3.58D-02 DE=-4.57D-02 OVMax= 1.35D-02

 Cycle   5  Pass 0  IDiag  1:
 RMSU=  1.28D-04    CP:  9.77D-01  1.02D+00  8.57D-01  7.75D-01
 E= -939.416028240458     Delta-E=       -0.008060071140 Rises=F Damp=F
 DIIS: error= 3.83D-04 at cycle   5 NSaved=   5.
 NSaved= 5 IEnMin= 5 EnMin= -939.416028240458     IErMin= 5 ErrMin= 3.83D-04
 ErrMax= 3.83D-04  0.00D+00 EMaxC= 1.00D-01 BMatC= 1.41D-03 BMatP= 4.16D-02
 IDIUse=3 WtCom= 9.96D-01 WtEn= 3.83D-03
 Coeff-Com: -0.702D-02 0.961D-02 0.102D+00 0.253D+00 0.642D+00
 Coeff-En:   0.000D+00 0.000D+00 0.000D+00 0.000D+00 0.100D+01
 Coeff:     -0.700D-02 0.958D-02 0.102D+00 0.252D+00 0.643D+00
 Gap=     0.295 Goal=   None    Shift=    0.000
 Gap=     0.302 Goal=   None    Shift=    0.000
 RMSDP=3.90D-05 MaxDP=2.90D-03 DE=-8.06D-03 OVMax= 8.17D-03

 Cycle   6  Pass 0  IDiag  1:
 RMSU=  3.67D-05    CP:  9.76D-01  1.01D+00  8.68D-01  7.90D-01  9.68D-01
 E= -939.416358786822     Delta-E=       -0.000330546364 Rises=F Damp=F
 DIIS: error= 1.79D-04 at cycle   6 NSaved=   6.
 NSaved= 6 IEnMin= 6 EnMin= -939.416358786822     IErMin= 6 ErrMin= 1.79D-04
 ErrMax= 1.79D-04  0.00D+00 EMaxC= 1.00D-01 BMatC= 2.44D-04 BMatP= 1.41D-03
 IDIUse=3 WtCom= 9.98D-01 WtEn= 1.79D-03
 Coeff-Com:  0.200D-02-0.932D-02 0.203D-04 0.584D-02 0.252D+00 0.750D+00
 Coeff-En:   0.000D+00 0.000D+00 0.000D+00 0.000D+00 0.000D+00 0.100D+01
 Coeff:      0.199D-02-0.930D-02 0.203D-04 0.583D-02 0.251D+00 0.750D+00
 Gap=     0.297 Goal=   None    Shift=    0.000
 Gap=     0.304 Goal=   None    Shift=    0.000
 RMSDP=3.41D-05 MaxDP=5.06D-03 DE=-3.31D-04 OVMax= 3.87D-03

 Cycle   7  Pass 0  IDiag  1:
 RMSU=  1.80D-05    CP:  9.76D-01  1.01D+00  8.75D-01  8.00D-01  1.15D+00
                    CP:  1.26D+00
 E= -939.416435960835     Delta-E=       -0.000077174013 Rises=F Damp=F
 DIIS: error= 7.30D-05 at cycle   7 NSaved=   7.
 NSaved= 7 IEnMin= 7 EnMin= -939.416435960835     IErMin= 7 ErrMin= 7.30D-05
 ErrMax= 7.30D-05  0.00D+00 EMaxC= 1.00D-01 BMatC= 4.43D-05 BMatP= 2.44D-04
 IDIUse=1 WtCom= 1.00D+00 WtEn= 0.00D+00
 Coeff-Com:  0.262D-02-0.576D-02-0.187D-01-0.560D-01-0.446D-01 0.206D+00
 Coeff-Com:  0.917D+00
 Coeff:      0.262D-02-0.576D-02-0.187D-01-0.560D-01-0.446D-01 0.206D+00
 Coeff:      0.917D+00
 Gap=     0.297 Goal=   None    Shift=    0.000
 Gap=     0.304 Goal=   None    Shift=    0.000
 RMSDP=2.24D-05 MaxDP=3.20D-03 DE=-7.72D-05 OVMax= 3.82D-03

 Cycle   8  Pass 0  IDiag  1:
 RMSU=  8.96D-06    CP:  9.76D-01  1.00D+00  8.79D-01  8.05D-01  1.27D+00
                    CP:  1.47D+00  1.34D+00
 E= -939.416458707291     Delta-E=       -0.000022746456 Rises=F Damp=F
 DIIS: error= 6.67D-05 at cycle   8 NSaved=   8.
 NSaved= 8 IEnMin= 8 EnMin= -939.416458707291     IErMin= 8 ErrMin= 6.67D-05
 ErrMax= 6.67D-05  0.00D+00 EMaxC= 1.00D-01 BMatC= 2.20D-05 BMatP= 4.43D-05
 IDIUse=1 WtCom= 1.00D+00 WtEn= 0.00D+00
 Coeff-Com:  0.121D-02-0.163D-02-0.968D-02-0.343D-01-0.795D-01-0.692D-01
 Coeff-Com:  0.535D+00 0.658D+00
 Coeff:      0.121D-02-0.163D-02-0.968D-02-0.343D-01-0.795D-01-0.692D-01
 Coeff:      0.535D+00 0.658D+00
 Gap=     0.298 Goal=   None    Shift=    0.000
 Gap=     0.304 Goal=   None    Shift=    0.000
 RMSDP=1.21D-05 MaxDP=1.76D-03 DE=-2.27D-05 OVMax= 1.30D-03

 Cycle   9  Pass 0  IDiag  1:
 RMSU=  5.00D-06    CP:  9.76D-01  9.97D-01  8.81D-01  8.03D-01  1.32D+00
                    CP:  1.57D+00  1.62D+00  1.18D+00
 E= -939.416463670960     Delta-E=       -0.000004963668 Rises=F Damp=F
 DIIS: error= 1.70D-05 at cycle   9 NSaved=   9.
 NSaved= 9 IEnMin= 9 EnMin= -939.416463670960     IErMin= 9 ErrMin= 1.70D-05
 ErrMax= 1.70D-05  0.00D+00 EMaxC= 1.00D-01 BMatC= 2.28D-06 BMatP= 2.20D-05
 IDIUse=1 WtCom= 1.00D+00 WtEn= 0.00D+00
 Coeff-Com: -0.120D-03 0.672D-03 0.177D-02 0.899D-03-0.155D-01-0.789D-01
 Coeff-Com:  0.400D-02 0.184D+00 0.903D+00
 Coeff:     -0.120D-03 0.672D-03 0.177D-02 0.899D-03-0.155D-01-0.789D-01
 Coeff:      0.400D-02 0.184D+00 0.903D+00
 Gap=     0.298 Goal=   None    Shift=    0.000
 Gap=     0.304 Goal=   None    Shift=    0.000
 RMSDP=7.00D-06 MaxDP=1.07D-03 DE=-4.96D-06 OVMax= 7.86D-04

 Cycle  10  Pass 0  IDiag  1:
 RMSU=  3.24D-06    CP:  9.75D-01  9.95D-01  8.82D-01  8.01D-01  1.34D+00
                    CP:  1.62D+00  1.78D+00  1.48D+00  1.53D+00
 E= -939.416461600108     Delta-E=        0.000002070852 Rises=F Damp=F
 DIIS: error= 1.31D-05 at cycle  10 NSaved=  10.
 NSaved=10 IEnMin= 9 EnMin= -939.416463670960     IErMin=10 ErrMin= 1.31D-05
 ErrMax= 1.31D-05  0.00D+00 EMaxC= 1.00D-01 BMatC= 1.11D-06 BMatP= 2.28D-06
 IDIUse=1 WtCom= 1.00D+00 WtEn= 0.00D+00
 Coeff-Com: -0.329D-03 0.669D-03 0.341D-02 0.915D-02 0.136D-01-0.239D-01
 Coeff-Com: -0.131D+00-0.113D+00 0.502D+00 0.738D+00
 Coeff:     -0.329D-03 0.669D-03 0.341D-02 0.915D-02 0.136D-01-0.239D-01
 Coeff:     -0.131D+00-0.113D+00 0.502D+00 0.738D+00
 Gap=     0.298 Goal=   None    Shift=    0.000
 Gap=     0.304 Goal=   None    Shift=    0.000
 RMSDP=5.86D-06 MaxDP=7.62D-04 DE= 2.07D-06 OVMax= 2.76D-04

 Initial convergence to 1.0D-05 achieved.  Increase integral accuracy.
 Cycle  11  Pass 1  IDiag  1:
 E= -939.416479536772     Delta-E=       -0.000017936665 Rises=F Damp=F
 DIIS: error= 1.00D-04 at cycle   1 NSaved=   1.
 NSaved= 1 IEnMin= 1 EnMin= -939.416479536772     IErMin= 1 ErrMin= 1.00D-04
 ErrMax= 1.00D-04  0.00D+00 EMaxC= 1.00D-01 BMatC= 7.18D-05 BMatP= 7.18D-05
 IDIUse=3 WtCom= 9.99D-01 WtEn= 1.00D-03
 Coeff-Com:  0.100D+01
 Coeff-En:   0.100D+01
 Coeff:      0.100D+01
 Gap=     0.298 Goal=   None    Shift=    0.000
 Gap=     0.304 Goal=   None    Shift=    0.000
 RMSDP=5.86D-06 MaxDP=7.62D-04 DE=-1.79D-05 OVMax= 3.57D-04

 Cycle  12  Pass 1  IDiag  1:
 RMSU=  1.39D-04    CP:  1.00D+00
 E= -939.416488641167     Delta-E=       -0.000009104394 Rises=F Damp=F
 DIIS: error= 3.11D-06 at cycle   2 NSaved=   2.
 NSaved= 2 IEnMin= 2 EnMin= -939.416488641167     IErMin= 2 ErrMin= 3.11D-06
 ErrMax= 3.11D-06  0.00D+00 EMaxC= 1.00D-01 BMatC= 1.40D-07 BMatP= 7.18D-05
 IDIUse=1 WtCom= 1.00D+00 WtEn= 0.00D+00
 Coeff-Com: -0.144D-01 0.101D+01
 Coeff:     -0.144D-01 0.101D+01
 Gap=     0.298 Goal=   None    Shift=    0.000
 Gap=     0.304 Goal=   None    Shift=    0.000
 RMSDP=5.49D-06 MaxDP=4.98D-04 DE=-9.10D-06 OVMax= 7.36D-05

 Cycle  13  Pass 1  IDiag  1:
 RMSU=  2.21D-06    CP:  1.00D+00  1.04D+00
 E= -939.416488667531     Delta-E=       -0.000000026364 Rises=F Damp=F
 DIIS: error= 4.00D-06 at cycle   3 NSaved=   3.
 NSaved= 3 IEnMin= 3 EnMin= -939.416488667531     IErMin= 2 ErrMin= 3.11D-06
 ErrMax= 4.00D-06  0.00D+00 EMaxC= 1.00D-01 BMatC= 1.56D-07 BMatP= 1.40D-07
 IDIUse=1 WtCom= 1.00D+00 WtEn= 0.00D+00
 Coeff-Com: -0.909D-02 0.542D+00 0.467D+00
 Coeff:     -0.909D-02 0.542D+00 0.467D+00
 Gap=     0.298 Goal=   None    Shift=    0.000
 Gap=     0.304 Goal=   None    Shift=    0.000
 RMSDP=4.11D-07 MaxDP=4.71D-05 DE=-2.64D-08 OVMax= 3.33D-05

 Cycle  14  Pass 1  IDiag  1:
 RMSU=  3.45D-07    CP:  1.00D+00  1.04D+00  1.09D+00
 E= -939.416488695852     Delta-E=       -0.000000028321 Rises=F Damp=F
 DIIS: error= 1.21D-06 at cycle   4 NSaved=   4.
 NSaved= 4 IEnMin= 4 EnMin= -939.416488695852     IErMin= 4 ErrMin= 1.21D-06
 ErrMax= 1.21D-06  0.00D+00 EMaxC= 1.00D-01 BMatC= 8.61D-09 BMatP= 1.40D-07
 IDIUse=1 WtCom= 1.00D+00 WtEn= 0.00D+00
 Coeff-Com:  0.495D-03-0.590D-01 0.811D-01 0.977D+00
 Coeff:      0.495D-03-0.590D-01 0.811D-01 0.977D+00
 Gap=     0.298 Goal=   None    Shift=    0.000
 Gap=     0.304 Goal=   None    Shift=    0.000
 RMSDP=5.90D-07 MaxDP=8.38D-05 DE=-2.83D-08 OVMax= 3.52D-05

 Cycle  15  Pass 1  IDiag  1:
 RMSU=  2.99D-07    CP:  1.00D+00  1.04D+00  1.28D+00  1.73D+00
 E= -939.416488700508     Delta-E=       -0.000000004656 Rises=F Damp=F
 DIIS: error= 1.06D-06 at cycle   5 NSaved=   5.
 NSaved= 5 IEnMin= 5 EnMin= -939.416488700508     IErMin= 5 ErrMin= 1.06D-06
 ErrMax= 1.06D-06  0.00D+00 EMaxC= 1.00D-01 BMatC= 7.37D-09 BMatP= 8.61D-09
 IDIUse=1 WtCom= 1.00D+00 WtEn= 0.00D+00
 Coeff-Com:  0.253D-02-0.169D+00-0.804D-01 0.624D+00 0.623D+00
 Coeff:      0.253D-02-0.169D+00-0.804D-01 0.624D+00 0.623D+00
 Gap=     0.298 Goal=   None    Shift=    0.000
 Gap=     0.304 Goal=   None    Shift=    0.000
 RMSDP=3.00D-07 MaxDP=2.92D-05 DE=-4.66D-09 OVMax= 1.70D-05

 Cycle  16  Pass 1  IDiag  1:
 RMSU=  9.97D-08    CP:  1.00D+00  1.04D+00  1.37D+00  2.20D+00  1.42D+00
 E= -939.416488702872     Delta-E=       -0.000000002365 Rises=F Damp=F
 DIIS: error= 3.25D-07 at cycle   6 NSaved=   6.
 NSaved= 6 IEnMin= 6 EnMin= -939.416488702872     IErMin= 6 ErrMin= 3.25D-07
 ErrMax= 3.25D-07  0.00D+00 EMaxC= 1.00D-01 BMatC= 7.29D-10 BMatP= 7.37D-09
 IDIUse=1 WtCom= 1.00D+00 WtEn= 0.00D+00
 Coeff-Com:  0.613D-03-0.329D-01-0.631D-01-0.691D-01 0.133D+00 0.103D+01
 Coeff:      0.613D-03-0.329D-01-0.631D-01-0.691D-01 0.133D+00 0.103D+01
 Gap=     0.298 Goal=   None    Shift=    0.000
 Gap=     0.304 Goal=   None    Shift=    0.000
 RMSDP=2.02D-07 MaxDP=2.75D-05 DE=-2.36D-09 OVMax= 1.62D-05

 Cycle  17  Pass 1  IDiag  1:
 RMSU=  3.73D-08    CP:  1.00D+00  1.04D+00  1.42D+00  2.51D+00  1.80D+00
                    CP:  1.37D+00
 E= -939.416488703463     Delta-E=       -0.000000000590 Rises=F Damp=F
 DIIS: error= 1.94D-07 at cycle   7 NSaved=   7.
 NSaved= 7 IEnMin= 7 EnMin= -939.416488703463     IErMin= 7 ErrMin= 1.94D-07
 ErrMax= 1.94D-07  0.00D+00 EMaxC= 1.00D-01 BMatC= 3.33D-10 BMatP= 7.29D-10
 IDIUse=1 WtCom= 1.00D+00 WtEn= 0.00D+00
 Coeff-Com: -0.275D-03 0.224D-01-0.185D-01-0.174D+00-0.103D+00 0.563D+00
 Coeff-Com:  0.710D+00
 Coeff:     -0.275D-03 0.224D-01-0.185D-01-0.174D+00-0.103D+00 0.563D+00
 Coeff:      0.710D+00
 Gap=     0.298 Goal=   None    Shift=    0.000
 Gap=     0.304 Goal=   None    Shift=    0.000
 RMSDP=6.56D-08 MaxDP=6.08D-06 DE=-5.90D-10 OVMax= 8.90D-06

 Cycle  18  Pass 1  IDiag  1:
 RMSU=  1.91D-08    CP:  1.00D+00  1.04D+00  1.44D+00  2.62D+00  1.91D+00
                    CP:  1.57D+00  1.18D+00
 E= -939.416488703623     Delta-E=       -0.000000000161 Rises=F Damp=F
 DIIS: error= 6.53D-08 at cycle   8 NSaved=   8.
 NSaved= 8 IEnMin= 8 EnMin= -939.416488703623     IErMin= 8 ErrMin= 6.53D-08
 ErrMax= 6.53D-08  0.00D+00 EMaxC= 1.00D-01 BMatC= 3.01D-11 BMatP= 3.33D-10
 IDIUse=1 WtCom= 1.00D+00 WtEn= 0.00D+00
 Coeff-Com: -0.162D-03 0.116D-01-0.242D-02-0.567D-01-0.562D-01 0.120D+00
 Coeff-Com:  0.263D+00 0.721D+00
 Coeff:     -0.162D-03 0.116D-01-0.242D-02-0.567D-01-0.562D-01 0.120D+00
 Coeff:      0.263D+00 0.721D+00
 Gap=     0.298 Goal=   None    Shift=    0.000
 Gap=     0.304 Goal=   None    Shift=    0.000
 RMSDP=1.04D-08 MaxDP=8.36D-07 DE=-1.61D-10 OVMax= 4.04D-06

 Cycle  19  Pass 1  IDiag  1:
 RMSU=  7.18D-09    CP:  1.00D+00  1.04D+00  1.44D+00  2.62D+00  1.91D+00
                    CP:  1.61D+00  1.30D+00  1.18D+00
 E= -939.416488703632     Delta-E=       -0.000000000009 Rises=F Damp=F
 DIIS: error= 4.19D-08 at cycle   9 NSaved=   9.
 NSaved= 9 IEnMin= 9 EnMin= -939.416488703632     IErMin= 9 ErrMin= 4.19D-08
 ErrMax= 4.19D-08  0.00D+00 EMaxC= 1.00D-01 BMatC= 1.38D-11 BMatP= 3.01D-11
 IDIUse=1 WtCom= 1.00D+00 WtEn= 0.00D+00
 Coeff-Com:  0.143D-05-0.110D-02 0.488D-02 0.321D-01 0.339D-02-0.134D+00
 Coeff-Com: -0.113D+00 0.407D+00 0.801D+00
 Coeff:      0.143D-05-0.110D-02 0.488D-02 0.321D-01 0.339D-02-0.134D+00
 Coeff:     -0.113D+00 0.407D+00 0.801D+00
 Gap=     0.298 Goal=   None    Shift=    0.000
 Gap=     0.304 Goal=   None    Shift=    0.000
 RMSDP=1.27D-08 MaxDP=2.22D-06 DE=-8.64D-12 OVMax= 4.04D-06

 Cycle  20  Pass 1  IDiag  1:
 RMSU=  5.14D-09    CP:  1.00D+00  1.04D+00  1.43D+00  2.61D+00  1.89D+00
                    CP:  1.64D+00  1.37D+00  1.43D+00  1.48D+00
 E= -939.416488703643     Delta-E=       -0.000000000011 Rises=F Damp=F
 DIIS: error= 2.59D-08 at cycle  10 NSaved=  10.
 NSaved=10 IEnMin=10 EnMin= -939.416488703643     IErMin=10 ErrMin= 2.59D-08
 ErrMax= 2.59D-08  0.00D+00 EMaxC= 1.00D-01 BMatC= 3.00D-12 BMatP= 1.38D-11
 IDIUse=1 WtCom= 1.00D+00 WtEn= 0.00D+00
 Coeff-Com:  0.497D-04-0.395D-02 0.225D-02 0.292D-01 0.168D-01-0.840D-01
 Coeff-Com: -0.122D+00-0.492D-01 0.279D+00 0.931D+00
 Coeff:      0.497D-04-0.395D-02 0.225D-02 0.292D-01 0.168D-01-0.840D-01
 Coeff:     -0.122D+00-0.492D-01 0.279D+00 0.931D+00
 Gap=     0.298 Goal=   None    Shift=    0.000
 Gap=     0.304 Goal=   None    Shift=    0.000
 RMSDP=9.00D-09 MaxDP=1.21D-06 DE=-1.09D-11 OVMax= 3.15D-06

 Cycle  21  Pass 1  IDiag  1:
 RMSU=  2.10D-09    CP:  1.00D+00  1.04D+00  1.43D+00  2.60D+00  1.87D+00
                    CP:  1.64D+00  1.41D+00  1.55D+00  1.94D+00  1.61D+00
 E= -939.416488703651     Delta-E=       -0.000000000008 Rises=F Damp=F
 DIIS: error= 1.72D-08 at cycle  11 NSaved=  11.
 NSaved=11 IEnMin=11 EnMin= -939.416488703651     IErMin=11 ErrMin= 1.72D-08
 ErrMax= 1.72D-08  0.00D+00 EMaxC= 1.00D-01 BMatC= 9.23D-13 BMatP= 3.00D-12
 IDIUse=1 WtCom= 1.00D+00 WtEn= 0.00D+00
 Coeff-Com:  0.156D-04-0.867D-03-0.900D-03-0.230D-02 0.384D-02 0.220D-01
 Coeff-Com:  0.785D-03-0.162D+00-0.205D+00 0.283D+00 0.106D+01
 Coeff:      0.156D-04-0.867D-03-0.900D-03-0.230D-02 0.384D-02 0.220D-01
 Coeff:      0.785D-03-0.162D+00-0.205D+00 0.283D+00 0.106D+01
 Gap=     0.298 Goal=   None    Shift=    0.000
 Gap=     0.304 Goal=   None    Shift=    0.000
 RMSDP=6.10D-09 MaxDP=9.93D-07 DE=-8.19D-12 OVMax= 2.50D-06

 SCF Done:  E(UM062X) =  -939.416488704     A.U. after   21 cycles
            NFock= 21  Conv=0.61D-08     -V/T= 2.0058
 <Sx>= 0.0000 <Sy>= 0.0000 <Sz>= 0.5000 <S**2>= 0.7562 S= 0.5031
 <L.S>=  0.00000000000    
 KE= 9.339864673133D+02 PE=-5.591929055582D+03 EE= 2.019371423430D+03
 Annihilation of the first spin contaminant:
 S**2 before annihilation     0.7562,   after     0.7500
 Leave Link  502 at Fri Jan 10 00:11:46 2025, MaxMem=  4026531840 cpu:           20390.6 elap:            1019.8
 (Enter /usr/local/intel/g16/l601.exe)
 Copying SCF densities to generalized density rwf, IOpCl= 1 IROHF=0.

 **********************************************************************

            Population analysis using the SCF Density.

 **********************************************************************

 Orbital symmetries:
 Alpha Orbitals:
       Occupied  (A) (A) (A) (A) (A) (A) (A) (A) (A) (A) (A) (A)
                 (A) (A) (A) (A) (A) (A) (A) (A) (A) (A) (A) (A)
                 (A) (A) (A) (A) (A) (A) (A) (A) (A) (A) (A) (A)
                 (A) (A) (A) (A) (A) (A) (A) (A) (A) (A) (A) (A)
                 (A) (A) (A) (A) (A) (A) (A) (A) (A) (A) (A) (A)
                 (A) (A) (A) (A) (A) (A) (A) (A) (A) (A) (A) (A)
                 (A) (A)
       Virtual   (A) (A) (A) (A) (A) (A) (A) (A) (A) (A) (A) (A)
                 (A) (A) (A) (A) (A) (A) (A) (A) (A) (A) (A) (A)
                 (A) (A) (A) (A) (A) (A) (A) (A) (A) (A) (A) (A)
                 (A) (A) (A) (A) (A) (A) (A) (A) (A) (A) (A) (A)
                 (A) (A) (A) (A) (A) (A) (A) (A) (A) (A) (A) (A)
                 (A) (A) (A) (A) (A) (A) (A) (A) (A) (A) (A) (A)
                 (A) (A) (A) (A) (A) (A) (A) (A) (A) (A) (A) (A)
                 (A) (A) (A) (A) (A) (A) (A) (A) (A) (A) (A) (A)
                 (A) (A) (A) (A) (A) (A) (A) (A) (A) (A) (A) (A)
                 (A) (A) (A) (A) (A) (A) (A) (A) (A) (A) (A) (A)
                 (A) (A) (A) (A) (A) (A) (A) (A) (A) (A) (A) (A)
                 (A) (A) (A) (A) (A) (A) (A) (A) (A) (A) (A) (A)
                 (A) (A) (A) (A) (A) (A) (A) (A) (A) (A) (A) (A)
                 (A) (A) (A) (A) (A) (A) (A) (A) (A) (A) (A) (A)
                 (A) (A) (A) (A) (A) (A) (A) (A) (A) (A) (A) (A)
                 (A) (A) (A) (A) (A) (A) (A) (A) (A) (A) (A) (A)
                 (A) (A) (A) (A) (A) (A) (A) (A) (A) (A) (A) (A)
                 (A) (A) (A) (A) (A) (A) (A) (A) (A) (A) (A) (A)
                 (A) (A) (A) (A) (A) (A) (A) (A) (A) (A) (A) (A)
                 (A) (A) (A) (A) (A) (A) (A) (A) (A) (A) (A) (A)
                 (A) (A) (A) (A) (A) (A) (A) (A) (A) (A) (A) (A)
                 (A) (A) (A) (A) (A) (A) (A) (A) (A) (A) (A) (A)
                 (A) (A) (A) (A) (A) (A) (A) (A) (A) (A) (A) (A)
                 (A) (A) (A) (A) (A) (A) (A) (A) (A) (A) (A) (A)
                 (A) (A) (A) (A) (A) (A) (A) (A) (A) (A) (A) (A)
                 (A) (A) (A) (A) (A) (A) (A) (A) (A) (A) (A) (A)
                 (A) (A) (A) (A) (A) (A) (A) (A) (A) (A) (A) (A)
                 (A) (A) (A) (A) (A) (A) (A) (A) (A) (A) (A) (A)
                 (A) (A) (A) (A) (A) (A) (A) (A) (A) (A) (A) (A)
                 (A) (A) (A) (A) (A) (A) (A) (A) (A) (A) (A) (A)
                 (A) (A) (A) (A) (A) (A) (A) (A) (A) (A) (A) (A)
                 (A) (A) (A) (A) (A) (A) (A) (A) (A) (A) (A) (A)
                 (A) (A) (A) (A) (A) (A) (A) (A) (A) (A) (A) (A)
                 (A) (A) (A) (A) (A) (A) (A) (A) (A) (A) (A) (A)
                 (A) (A) (A) (A) (A) (A) (A) (A) (A) (A) (A) (A)
                 (A) (A) (A) (A) (A) (A) (A) (A) (A) (A) (A) (A)
                 (A) (A) (A) (A) (A) (A) (A) (A) (A) (A) (A) (A)
                 (A) (A) (A) (A) (A) (A) (A) (A) (A) (A) (A) (A)
                 (A) (A) (A) (A) (A) (A) (A) (A) (A) (A) (A) (A)
                 (A) (A) (A) (A) (A) (A) (A) (A) (A) (A) (A) (A)
                 (A) (A) (A) (A) (A) (A) (A) (A) (A) (A) (A) (A)
                 (A) (A) (A) (A) (A) (A) (A) (A) (A) (A) (A) (A)
                 (A) (A) (A) (A) (A) (A) (A) (A) (A) (A) (A) (A)
                 (A) (A) (A) (A) (A) (A) (A) (A) (A) (A) (A) (A)
                 (A) (A) (A) (A) (A) (A) (A) (A) (A) (A) (A) (A)
                 (A) (A) (A) (A) (A) (A) (A) (A) (A) (A) (A) (A)
                 (A) (A) (A) (A) (A) (A) (A) (A) (A) (A) (A) (A)
                 (A) (A) (A) (A) (A) (A) (A) (A) (A) (A) (A) (A)
                 (A) (A) (A) (A) (A) (A) (A) (A) (A) (A) (A) (A)
                 (A) (A) (A) (A) (A) (A) (A) (A) (A) (A) (A) (A)
                 (A) (A) (A) (A) (A) (A) (A) (A) (A) (A) (A) (A)
                 (A) (A) (A) (A) (A) (A) (A) (A) (A) (A) (A) (A)
                 (A) (A) (A) (A) (A) (A) (A) (A) (A) (A) (A) (A)
                 (A) (A) (A) (A) (A) (A) (A) (A) (A) (A) (A)
 Beta  Orbitals:
       Occupied  (A) (A) (A) (A) (A) (A) (A) (A) (A) (A) (A) (A)
                 (A) (A) (A) (A) (A) (A) (A) (A) (A) (A) (A) (A)
                 (A) (A) (A) (A) (A) (A) (A) (A) (A) (A) (A) (A)
                 (A) (A) (A) (A) (A) (A) (A) (A) (A) (A) (A) (A)
                 (A) (A) (A) (A) (A) (A) (A) (A) (A) (A) (A) (A)
                 (A) (A) (A) (A) (A) (A) (A) (A) (A) (A) (A) (A)
                 (A)
       Virtual   (A) (A) (A) (A) (A) (A) (A) (A) (A) (A) (A) (A)
                 (A) (A) (A) (A) (A) (A) (A) (A) (A) (A) (A) (A)
                 (A) (A) (A) (A) (A) (A) (A) (A) (A) (A) (A) (A)
                 (A) (A) (A) (A) (A) (A) (A) (A) (A) (A) (A) (A)
                 (A) (A) (A) (A) (A) (A) (A) (A) (A) (A) (A) (A)
                 (A) (A) (A) (A) (A) (A) (A) (A) (A) (A) (A) (A)
                 (A) (A) (A) (A) (A) (A) (A) (A) (A) (A) (A) (A)
                 (A) (A) (A) (A) (A) (A) (A) (A) (A) (A) (A) (A)
                 (A) (A) (A) (A) (A) (A) (A) (A) (A) (A) (A) (A)
                 (A) (A) (A) (A) (A) (A) (A) (A) (A) (A) (A) (A)
                 (A) (A) (A) (A) (A) (A) (A) (A) (A) (A) (A) (A)
                 (A) (A) (A) (A) (A) (A) (A) (A) (A) (A) (A) (A)
                 (A) (A) (A) (A) (A) (A) (A) (A) (A) (A) (A) (A)
                 (A) (A) (A) (A) (A) (A) (A) (A) (A) (A) (A) (A)
                 (A) (A) (A) (A) (A) (A) (A) (A) (A) (A) (A) (A)
                 (A) (A) (A) (A) (A) (A) (A) (A) (A) (A) (A) (A)
                 (A) (A) (A) (A) (A) (A) (A) (A) (A) (A) (A) (A)
                 (A) (A) (A) (A) (A) (A) (A) (A) (A) (A) (A) (A)
                 (A) (A) (A) (A) (A) (A) (A) (A) (A) (A) (A) (A)
                 (A) (A) (A) (A) (A) (A) (A) (A) (A) (A) (A) (A)
                 (A) (A) (A) (A) (A) (A) (A) (A) (A) (A) (A) (A)
                 (A) (A) (A) (A) (A) (A) (A) (A) (A) (A) (A) (A)
                 (A) (A) (A) (A) (A) (A) (A) (A) (A) (A) (A) (A)
                 (A) (A) (A) (A) (A) (A) (A) (A) (A) (A) (A) (A)
                 (A) (A) (A) (A) (A) (A) (A) (A) (A) (A) (A) (A)
                 (A) (A) (A) (A) (A) (A) (A) (A) (A) (A) (A) (A)
                 (A) (A) (A) (A) (A) (A) (A) (A) (A) (A) (A) (A)
                 (A) (A) (A) (A) (A) (A) (A) (A) (A) (A) (A) (A)
                 (A) (A) (A) (A) (A) (A) (A) (A) (A) (A) (A) (A)
                 (A) (A) (A) (A) (A) (A) (A) (A) (A) (A) (A) (A)
                 (A) (A) (A) (A) (A) (A) (A) (A) (A) (A) (A) (A)
                 (A) (A) (A) (A) (A) (A) (A) (A) (A) (A) (A) (A)
                 (A) (A) (A) (A) (A) (A) (A) (A) (A) (A) (A) (A)
                 (A) (A) (A) (A) (A) (A) (A) (A) (A) (A) (A) (A)
                 (A) (A) (A) (A) (A) (A) (A) (A) (A) (A) (A) (A)
                 (A) (A) (A) (A) (A) (A) (A) (A) (A) (A) (A) (A)
                 (A) (A) (A) (A) (A) (A) (A) (A) (A) (A) (A) (A)
                 (A) (A) (A) (A) (A) (A) (A) (A) (A) (A) (A) (A)
                 (A) (A) (A) (A) (A) (A) (A) (A) (A) (A) (A) (A)
                 (A) (A) (A) (A) (A) (A) (A) (A) (A) (A) (A) (A)
                 (A) (A) (A) (A) (A) (A) (A) (A) (A) (A) (A) (A)
                 (A) (A) (A) (A) (A) (A) (A) (A) (A) (A) (A) (A)
                 (A) (A) (A) (A) (A) (A) (A) (A) (A) (A) (A) (A)
                 (A) (A) (A) (A) (A) (A) (A) (A) (A) (A) (A) (A)
                 (A) (A) (A) (A) (A) (A) (A) (A) (A) (A) (A) (A)
                 (A) (A) (A) (A) (A) (A) (A) (A) (A) (A) (A) (A)
                 (A) (A) (A) (A) (A) (A) (A) (A) (A) (A) (A) (A)
                 (A) (A) (A) (A) (A) (A) (A) (A) (A) (A) (A) (A)
                 (A) (A) (A) (A) (A) (A) (A) (A) (A) (A) (A) (A)
                 (A) (A) (A) (A) (A) (A) (A) (A) (A) (A) (A) (A)
                 (A) (A) (A) (A) (A) (A) (A) (A) (A) (A) (A) (A)
                 (A) (A) (A) (A) (A) (A) (A) (A) (A) (A) (A) (A)
                 (A) (A) (A) (A) (A) (A) (A) (A) (A) (A) (A) (A)
                 (A) (A) (A) (A) (A) (A) (A) (A) (A) (A) (A) (A)
 The electronic state is 2-A.
 Alpha  occ. eigenvalues --  -19.67998 -19.67520 -19.64056 -19.62923 -19.62389
 Alpha  occ. eigenvalues --  -14.85008 -10.68717 -10.68238 -10.61368 -10.60999
 Alpha  occ. eigenvalues --  -10.60134 -10.59710 -10.55222 -10.55078 -10.54720
 Alpha  occ. eigenvalues --  -10.54633 -10.54232 -10.53513 -10.52680  -1.23056
 Alpha  occ. eigenvalues --   -1.22355  -1.20579  -1.13642  -1.13180  -0.99354
 Alpha  occ. eigenvalues --   -0.93490  -0.87763  -0.86251  -0.84147  -0.83312
 Alpha  occ. eigenvalues --   -0.81281  -0.76671  -0.74449  -0.71134  -0.69830
 Alpha  occ. eigenvalues --   -0.68056  -0.64375  -0.62956  -0.60813  -0.59063
 Alpha  occ. eigenvalues --   -0.58620  -0.57146  -0.56194  -0.55907  -0.55393
 Alpha  occ. eigenvalues --   -0.54725  -0.52808  -0.52523  -0.51599  -0.51005
[...]
 0004398,-0.00005972,0.00002337,-0.00231710,0.00058446,0.00047516,0.000
 69804,0.00044871,0.00008667,0.00018366,-0.00205905,-0.00047597,-0.0780
 1052,0.19451352,0.00012960,0.00010456,0.00004337,-0.00014594,0.0000094
 9,-0.00002705,-0.00052383,0.00033777,0.00051730,0.00001680,0.00002162,
 0.00012596,0.00000317,-0.00004558,-0.00003770,0.00000709,-0.00001497,-
 0.00000159,-0.00000449,0.00001731,-0.00003468,0.00000488,-0.00000136,0
 .00000999,0.00000532,-0.00014563,-0.00000848,0.00001706,0.00005586,-0.
 00000188,-0.00002222,0.00010435,0.00001144,-0.00000486,-0.00004140,-0.
 00000029,0.00007812,0.00001950,-0.00004419,0.00024803,0.00003812,0.000
 02137,0.00002438,0.00000297,0.00001792,-0.00000002,0.00000226,0.000007
 08,0.00000937,0.00000262,0.00000504,-0.00000388,-0.00000364,0.00000234
 ,-0.00000640,-0.00000397,0.00000069,-0.00000220,0.00001734,-0.00000435
 ,0.00000380,0.00000176,-0.00000234,0.00000167,0.00000505,-0.00000105,-
 0.00000011,0.00000846,0.00000436,0.00000142,0.00000248,-0.00000357,0.0
 0000487,0.00000098,0.00000342,0.00000374,-0.00000318,-0.00000033,-0.00
 000070,0.00000023,0.00000246,0.00312916,-0.00609546,-0.00583544,0.0607
 9021,-0.11109390,-0.13917452,-0.00008568,-0.00130450,0.00101250,-0.000
 39667,0.00000093,-0.00062663,-0.00043476,0.00069393,-0.00049852,0.0000
 4848,0.00005358,0.00004420,0.00134456,0.00102808,0.00048827,-0.0000827
 6,-0.00008402,-0.00017144,0.01080692,-0.01863665,-0.01484828,-0.067930
 50,0.12302841,0.14837684,-0.00070458,0.00006348,-0.00042350,-0.0001471
 0,0.00005234,0.00059393,0.00156014,-0.00055734,0.00063532,-0.00036590,
 -0.00036130,-0.00046979,-0.00002554,0.00013225,-0.00015482,0.00004907,
 -0.00003698,0.00008844,0.00007801,0.00001605,0.00007760,-0.00005047,-0
 .00004750,-0.00004858,0.00001035,-0.00003525,0.00000572,0.00000361,0.0
 0002036,-0.00000685,-0.00000741,0.00003243,-0.00001701,-0.00000299,-0.
 00000507,0.00000927,-0.00020385,0.00025134,0.00017664,-0.00105394,-0.0
 0001804,-0.00148195,0.00002925,-0.00000086,0.00001034,0.00004048,0.000
 03320,0.00004033,0.00003749,0.00005388,-0.00001812,0.00000701,0.000017
 31,-0.00000433,0.00002314,0.00000178,-0.00000483,-0.00000181,0.0000224
 3,0.00001994,0.00000475,0.00000286,-0.00000183,-0.00000099,0.00000018,
 -0.00000180,-0.00000010,0.00000077,0.00000110,0.00000114,0.00002118,0.
 00001735,0.00000572,-0.00000095,0.00000177,-0.00000566,0.00000004,-0.0
 0000762,-0.00000973,0.00000489,-0.00001222,0.00067783,-0.02922310,0.01
 637774,-0.04698019,-0.00161239,0.00123268,-0.00026824,-0.00002603,0.00
 046414,0.00017046,0.00010476,-0.00023295,0.00004775,0.00009154,-0.0001
 1850,-0.00004429,0.00005576,-0.00001552,0.00154285,0.00072507,-0.00030
 765,-0.00586792,-0.00095319,0.00113738,-0.00011949,0.01728252,-0.00802
 450,-0.00075331,0.00996906,-0.00710292,0.05230440,-0.00026581,0.000047
 26,-0.00021035,-0.00021692,0.00001369,-0.00000025,0.00046868,-0.000590
 15,0.00107754,-0.00021507,0.00014449,0.00112748,0.00025966,0.00027618,
 -0.00043750,0.00012954,-0.00009080,0.00014572,0.00003673,-0.00003556,0
 .00011958,-0.00003218,-0.00003198,-0.00004025,0.00002515,-0.00005835,-
 0.00003408,-0.00002928,0.00001725,0.00001322,-0.00003863,0.00004738,-0
 .00000899,0.00001016,-0.00000376,0.00000546,-0.00014792,-0.00021083,-0
 .00018516,0.00071748,0.00037418,-0.00049662,0.00003542,-0.00000152,0.0
 0002227,-0.00004106,-0.00000749,-0.00003067,0.00004841,0.00007656,-0.0
 0002445,0.00000944,0.00001180,0.00000555,0.00002016,0.00000152,-0.0000
 0615,0.00000116,0.00001614,0.00002161,0.00000525,0.00000236,-0.0000020
 6,-0.00000487,0.00000208,-0.00000198,0.00000305,0.00000576,0.00000431,
 -0.00000075,0.00001329,0.00001919,0.00000342,-0.00000292,0.00000032,-0
 .00000586,0.00000211,-0.00000719,-0.00000860,0.00000636,-0.00001309,-0
 .00053577,-0.00556043,0.00255632,-0.00326508,-0.25276745,0.11550984,0.
 00018873,-0.00060016,0.00105269,0.00012518,0.00026666,-0.00056666,-0.0
 0026184,0.00033036,-0.00038269,0.00004046,0.00014324,0.00003359,-0.000
 35924,0.00077536,-0.00022243,-0.00112422,0.00139127,0.00007386,0.00072
 400,0.00345150,-0.00211539,-0.00025786,-0.01909650,0.01181848,0.003968
 11,0.27162986,0.00039107,0.00004430,0.00003130,-0.00006183,0.00008804,
 -0.00003073,-0.00004652,-0.00040244,0.00007672,-0.00044519,0.00012313,
 -0.00053355,-0.00006551,-0.00018016,0.00009871,-0.00002083,0.00000223,
 -0.00004381,-0.00005391,0.00002778,-0.00005291,0.00002379,0.00002464,0
 .00001998,-0.00004403,-0.00007140,0.00000775,0.00005137,0.00002997,-0.
 00001442,0.00001446,0.00004010,0.00000734,-0.00001003,-0.00002962,-0.0
 0000274,0.00024940,0.00003622,0.00001223,-0.00198171,-0.00011169,-0.00
 080729,0.00002562,-0.00000370,0.00003026,-0.00000598,-0.00000480,0.000
 00642,-0.00000254,-0.00001358,0.00001884,-0.00000394,-0.00001037,-0.00
 000565,-0.00000425,0.00000503,0.00000046,-0.00000244,0.00000174,0.0000
 0733,-0.00000172,0.00000074,-0.00000068,0.00000375,0.00000211,0.000001
 58,-0.00000156,0.00000226,-0.00000030,0.00000222,-0.00001511,-0.000011
 63,-0.00000179,0.00000203,-0.00000077,0.00001222,-0.00000521,0.0000013
 6,-0.00000061,0.00000207,0.00000413,0.00021729,0.00815808,-0.00579544,
 0.00191942,0.11567261,-0.11290652,0.00047354,-0.00038833,0.00021385,0.
 00000054,0.00024566,-0.00005357,-0.00022881,0.00017875,-0.00005013,0.0
 0006817,-0.00000526,-0.00001197,-0.00018985,-0.00000678,-0.00001020,0.
 00200973,-0.00021176,0.00061626,0.00098166,0.02321868,-0.01243218,-0.0
 0086802,-0.01762988,0.01054268,-0.00238839,-0.12885935,0.12102031,0.00
 000673,0.00006272,-0.00007010,0.00001584,0.00008339,0.00007756,-0.0001
 7485,0.00001194,-0.00024253,-0.00002088,0.00006495,0.00005554,-0.00002
 145,0.00000886,0.00000737,0.00001614,-0.00001204,0.00001410,0.00004856
 ,-0.00002744,0.00001382,0.00000282,-0.00000510,-0.00001207,0.00022392,
 -0.00030062,-0.00011227,-0.00016486,0.00007442,0.00007341,-0.00018271,
 0.00017953,0.00007132,0.00010295,0.00002040,-0.00004196,0.00000048,0.0
 0002421,-0.00001897,0.00001268,0.00001803,-0.00000859,0.00000260,0.000
 00933,-0.00000220,0.00000126,0.00000505,-0.00000947,-0.00000045,0.0000
 0280,-0.00000602,0.00001631,-0.00004494,0.00002947,0.00000013,-0.00000
 326,-0.00000333,-0.00000009,0.00000839,0.00000104,-0.00002032,0.000014
 65,0.00001053,-0.00002236,0.00000881,0.00000625,0.00001590,0.00006359,
 -0.00001051,-0.00000340,0.00000531,0.00000961,0.00000540,-0.00000523,0
 .00000171,-0.00000671,0.00000657,0.00000008,0.00000177,0.00000068,-0.0
 0000456,0.00002645,-0.00005868,-0.00004734,-0.00000870,0.00003000,-0.0
 0000245,-0.00038133,-0.00358734,0.00471936,0.00117871,-0.00082182,-0.0
 0237052,-0.00727385,0.01028582,0.00612269,-0.28660610,-0.04344450,0.07
 939230,0.00000222,0.00002295,-0.00002627,-0.00003425,-0.00002096,-0.00
 005059,0.00001498,0.00000454,-0.00000185,-0.00001594,0.00010968,0.0000
 6524,0.00000765,0.00001122,0.00000664,0.30780731,0.00006652,-0.0000169
 6,0.00014472,-0.00022388,-0.00010461,0.00006280,-0.00096984,-0.0003499
 0,-0.00034810,0.00000186,-0.00004424,-0.00011664,-0.00001806,-0.000005
 13,-0.00001273,0.00001696,-0.00000077,0.00000510,-0.00011449,0.0000336
 4,-0.00007786,0.00003541,0.00001000,0.00002344,0.00006210,-0.00034251,
 -0.00007437,-0.00004816,0.00013161,0.00002573,-0.00005046,0.00034603,0
 .00007289,0.00009263,-0.00026601,-0.00006731,0.00000255,-0.00004436,0.
 00003243,-0.00000337,-0.00000865,0.00001858,0.00000823,0.00000420,0.00
 001134,0.00000453,0.00000105,0.00001394,0.00000473,-0.00000163,0.00001
 345,-0.00003082,0.00000454,-0.00001000,-0.00000770,-0.00000240,-0.0000
 0118,-0.00000375,0.00001626,0.00000170,0.00000926,0.00002297,-0.000007
 19,-0.00002334,0.00006789,0.00000580,0.00002840,0.00009778,0.00006375,
 0.00000087,-0.00000776,-0.00000759,0.00000702,-0.00000143,0.00000418,0
 .00000480,-0.00000065,0.00000329,0.00000136,0.00000062,0.00000087,0.00
 022662,-0.00013287,-0.00005592,0.00015028,-0.00008106,-0.00011880,0.00
 244920,0.00471828,-0.00580438,-0.00051168,-0.00067108,0.00288437,0.035
 16983,-0.00770993,-0.01387668,-0.05250147,-0.05914284,0.01830275,-0.00
 008569,-0.00003438,-0.00008796,0.00002851,0.00003535,0.00005011,-0.000
 03205,0.00002400,0.00002235,-0.00005768,0.00005843,0.00005747,-0.00003
 041,0.00002509,0.00004037,0.04268786,0.06457207,0.00008064,-0.00003886
 ,0.00003460,-0.00006699,-0.00012827,-0.00007426,0.00003254,0.00000711,
 0.00002132,-0.00001266,-0.00003195,-0.00007707,-0.00003341,0.00000352,
 0.00000011,0.00002843,0.00000148,0.00001514,-0.00010710,0.00002823,-0.
 00006466,0.00002755,0.00001075,0.00001996,0.00000112,-0.00028391,-0.00
 005037,-0.00002459,0.00010725,0.00001567,-0.00000624,0.00024672,0.0001
 2433,0.00008091,-0.00011214,-0.00004065,0.00002167,-0.00004675,0.00001
 163,0.00000957,0.00001924,0.00003016,0.00002231,-0.00000140,-0.0000041
 6,-0.00001023,0.00001771,-0.00001547,0.00001302,-0.00000983,0.00000960
 ,-0.00001963,-0.00007538,-0.00000685,-0.00000495,0.00000082,-0.0000006
 8,-0.00000374,0.00001335,0.00000560,-0.00003361,0.00002996,0.00001615,
 0.00000235,0.00001663,0.00000915,-0.00000984,0.00006884,-0.00004258,0.
 00000125,-0.00001022,-0.00000743,0.00000469,0.00000076,0.00000284,0.00
 000770,-0.00000333,0.00000134,-0.00000108,0.00000184,0.00000015,0.0000
 9338,0.00002059,0.00003530,0.00005571,-0.00003358,-0.00011803,-0.00049
 140,0.00319356,-0.00080806,-0.00030495,-0.00073335,0.00062467,0.019268
 40,-0.00749019,-0.00911013,0.07814153,0.01520029,-0.07731574,-0.000043
 66,-0.00001187,-0.00002098,0.00005647,0.00002234,0.00001987,-0.0000217
 2,-0.00001932,-0.00001763,-0.00001057,-0.00005065,0.00009238,-0.000036
 32,0.00004858,0.00003897,-0.09264760,-0.00967830,0.08223157,-0.0000495
 9,-0.00009454,0.00003664,0.00004867,-0.00001278,-0.00008496,0.00026293
 ,0.00040517,-0.00041748,-0.00006761,0.00009578,0.00014004,-0.00000088,
 0.00001534,0.00001600,0.00000766,-0.00003499,-0.00002500,0.00003616,0.
 00000929,0.00000287,-0.00001761,-0.00000859,0.00001128,-0.00015189,0.0
 0038661,0.00010850,0.00008695,-0.00013578,-0.00005047,0.00014304,-0.00
 038712,0.00001293,-0.00009464,0.00029113,0.00005181,-0.00000918,0.0000
 5426,-0.00003236,-0.00000007,-0.00000886,0.00000504,-0.00000249,0.0000
 0176,-0.00000729,-0.00000997,-0.00001001,-0.00000339,-0.00000604,0.000
 00478,-0.00000127,0.00004265,-0.00003213,-0.00000276,0.00000033,0.0000
 0914,0.00000631,0.00000274,-0.00001530,-0.00000313,-0.00003613,-0.0000
 1738,0.00002939,0.00004456,-0.00008451,-0.00000100,-0.00007993,-0.0000
 8176,-0.00013846,0.00000267,0.00000256,-0.00000239,-0.00000697,0.00000
 403,-0.00000488,0.00000070,-0.00000278,0.00000037,-0.00000037,-0.00000
 394,0.00000418,-0.00004830,0.00000351,-0.00000077,-0.00001893,0.000018
 96,0.00001520,-0.00087616,0.00075591,0.00292610,0.00102118,-0.00063227
 ,-0.00059952,-0.00079513,0.01468144,-0.00728009,-0.05282720,-0.0123450
 3,0.00748642,0.00001568,0.00002329,0.00001336,0.00003580,-0.00000518,-
 0.00000969,0.00000377,-0.00001838,-0.00001316,0.00000845,0.00001609,0.
 00003319,-0.00000488,0.00000330,-0.00000425,0.00234565,-0.02234220,0.0
 1956374,0.04907452,0.00008490,0.00012972,-0.00011256,-0.00005569,-0.00
 006737,0.00010463,-0.00020437,-0.00076324,0.00111739,0.00015048,-0.000
 26440,-0.00041128,-0.00003828,0.00000201,-0.00003694,0.00000757,0.0000
 1009,0.00003305,-0.00007244,0.00002792,-0.00005453,0.00001312,0.000000
 63,0.00000288,0.00003292,-0.00029272,-0.00004101,-0.00000468,0.0001049
 3,0.00000770,-0.00002621,0.00022256,0.00001253,0.00003630,-0.00012468,
 -0.00001437,0.00003923,-0.00015841,0.00008524,-0.00000072,0.00004536,0
 .00000466,0.00002294,-0.00000102,0.00001060,0.00000184,0.00001430,0.00
 000173,0.00002105,-0.00000580,0.00000242,-0.00002520,-0.00002962,-0.00
 001805,0.00000039,-0.00000250,-0.00000280,-0.00000464,0.00001664,0.000
 00733,0.00002825,0.00000837,-0.00000875,-0.00001134,0.00003680,-0.0000
 0534,0.00002404,0.00005998,0.00003594,0.00000098,-0.00000528,-0.000002
 58,0.00000537,0.00000029,0.00000395,0.00000533,-0.00000313,-0.00000075
 ,-0.00000277,0.00000348,-0.00000291,0.00013119,-0.00002864,0.00010893,
 -0.00000355,0.00002764,-0.00003581,0.00192088,-0.00049517,-0.00596538,
 -0.00027898,0.00085724,0.00089169,0.00311119,-0.03478133,0.01548570,-0
 .00864687,-0.19817156,0.13612462,-0.00003809,-0.00002658,-0.00005797,-
 0.00000979,-0.00003080,-0.00000259,-0.00002253,-0.00002901,-0.00001944
 ,0.00003653,0.00000234,0.00003333,0.00000388,0.00000809,0.00000114,-0.
 00073242,-0.00153386,0.00328314,0.00390961,0.22828523,-0.00003099,0.00
 003941,-0.00001835,-0.00003185,0.00001949,0.00006715,-0.00000142,-0.00
 060729,0.00067718,0.00008613,-0.00017227,-0.00019236,-0.00000934,0.000
 00167,-0.00001220,0.00000314,-0.00005172,-0.00002869,0.00001869,0.0000
 1277,-0.00002167,-0.00001061,-0.00001570,0.00001139,-0.00001340,0.0001
 3696,0.00003396,-0.00000486,-0.00006627,-0.00001134,-0.00000866,-0.000
 17447,0.00001240,-0.00006523,0.00027255,0.00007681,-0.00000014,-0.0000
 7205,0.00005568,-0.00001598,-0.00001013,0.00000541,0.00000057,0.000014
 43,0.00000906,0.00000631,-0.00001828,0.00001738,-0.00000641,0.00001458
 ,0.00000203,0.00003188,-0.00000198,-0.00000568,-0.00000142,0.00000651,
 0.00000529,0.00000074,-0.00000619,-0.00000228,0.00001173,-0.00002423,-
 0.00000121,0.00002706,-0.00005162,-0.00002251,-0.00004477,-0.00005430,
 -0.00005524,0.00000201,0.00000615,0.00000006,-0.00000152,0.00000052,-0
 .00000254,-0.00000255,0.00000086,0.00000189,0.00000085,-0.00000436,0.0
 0000248,0.00001642,0.00002063,0.00008801,0.00001382,-0.00000640,-0.000
 01718,0.00213003,-0.00238605,-0.00472801,-0.00079791,0.00174716,0.0019
 5745,0.00127638,-0.02366319,0.01346112,0.00456567,0.14955345,-0.180556
 23,-0.00000590,0.00000840,-0.00001122,-0.00001264,-0.00000432,-0.00002
 732,-0.00001044,0.00000263,0.00001047,-0.00001265,0.00000858,0.0000021
 0,0.00000315,0.00000306,-0.00000404,-0.00139156,0.00539406,-0.00500149
 ,-0.00890472,-0.14724026,0.18730772,-0.00008309,-0.00002774,0.00010930
 ,-0.00001941,0.00002494,0.00003271,-0.00049649,-0.00018283,-0.00011632
 ,-0.00000347,-0.00000748,0.00002014,0.00005076,-0.00003170,-0.00000587
 ,-0.00007988,0.00007593,0.00003748,0.00005729,-0.00000557,0.00003417,-
 0.00002013,-0.00000384,-0.00000883,-0.00018902,0.00047170,0.00012689,0
 .00016291,-0.00012969,-0.00007227,0.00024882,-0.00024178,-0.00016028,-
 0.00008323,0.00000561,0.00004251,-0.00000959,0.00001787,-0.00000361,-0
 .00001423,-0.00001120,-0.00001632,-0.00002187,-0.00001046,0.00000505,-
 0.00000060,-0.00001956,0.00001126,0.00000026,-0.00000731,-0.00001268,0
 .00012184,-0.00007477,-0.00007318,0.00000443,0.00000114,0.00000328,0.0
 0000341,-0.00001458,-0.00000392,0.00003258,-0.00001741,-0.00001640,0.0
 0001773,-0.00000521,-0.00000970,-0.00010306,-0.00016188,0.00004288,0.0
 0000094,0.00000478,-0.00000035,-0.00000661,0.00000348,-0.00000397,-0.0
 0000116,-0.00000195,-0.00000112,-0.00000141,-0.00000194,0.00000281,-0.
 00004439,-0.00002662,-0.00004127,-0.00003400,0.00002901,0.00006560,0.0
 0114477,-0.00015748,-0.00039235,-0.00016765,0.00118778,0.00059739,0.01
 106507,0.00526367,0.01366783,-0.15710808,-0.02889044,-0.13206575,0.000
 02249,0.00002922,-0.00000383,-0.00002133,0.00000309,-0.00003395,0.0000
 1056,0.00001049,0.00000760,-0.00000623,0.00003651,-0.00002913,0.000017
 29,-0.00002370,-0.00001719,-0.01691823,-0.00400447,-0.02362268,0.00191
 987,0.00059058,0.00319040,0.16055212,0.00013668,-0.00001112,-0.0000902
 9,-0.00003072,-0.00010515,-0.00007130,0.00079490,0.00009035,0.00032094
 ,0.00006534,-0.00005713,-0.00008138,-0.00005499,0.00000729,-0.00000930
 ,0.00007610,-0.00013603,-0.00005603,-0.00009860,0.00006401,-0.00011648
 ,0.00001684,-0.00000971,0.00005308,0.00004940,-0.00017945,-0.00004218,
 -0.00005681,0.00003713,0.00001923,-0.00008356,0.00001545,0.00013202,-0
 .00002150,0.00025638,0.00001419,-0.00000145,-0.00003685,0.00004378,-0.
 00000792,-0.00001161,0.00001609,0.00003161,0.00002678,0.00001325,0.000
 00412,-0.00001910,0.00001584,-0.00000661,0.00002562,0.00002450,0.00001
 596,-0.00002459,0.00002715,-0.00001367,0.00001160,0.00000777,-0.000002
 66,0.00000873,-0.00000172,0.00001353,-0.00004435,-0.00000024,0.0000060
 4,-0.00003194,-0.00001182,-0.00006569,-0.00005516,0.00002875,0.0000056
 0,-0.00000246,-0.00001024,0.00000415,0.00000112,0.00000052,0.00000458,
 -0.00000233,0.00000558,0.00000177,-0.00000570,0.00000600,0.00008625,0.
 00002539,0.00004540,0.00004166,0.00000039,-0.00000307,-0.00035752,0.00
 476588,-0.00814192,-0.00113781,0.00011946,0.00325919,-0.01387230,-0.02
 098904,-0.02783501,-0.02268612,-0.05547875,-0.02579187,-0.00002009,-0.
 00008330,0.00003245,0.00004527,-0.00000850,0.00017500,-0.00001638,-0.0
 0001416,-0.00000426,0.00002962,0.00003288,0.00000733,-0.00001905,-0.00
 002195,0.00000176,-0.00476136,0.00033322,-0.00358342,0.01558155,0.0069
 5150,0.01736721,0.02630383,0.06455519,0.00018774,0.00001206,-0.0000108
 2,-0.00013597,0.00004537,0.00002589,-0.00015709,-0.00020176,0.00001763
 ,0.00006278,-0.00002938,-0.00008187,-0.00004163,-0.00002339,-0.0000113
 9,0.00002502,0.00004180,0.00004530,-0.00011018,-0.00000929,-0.00008601
 ,0.00005154,0.00001698,0.00001271,0.00029569,-0.00090328,-0.00023484,-
 0.00024090,0.00030272,0.00012556,-0.00022455,0.00070504,0.00021589,0.0
 0026836,-0.00033908,-0.00016054,0.00001254,-0.00004476,0.00002178,0.00
 000989,0.00003332,0.00000588,0.00003066,0.00000550,0.00000740,0.000003
 86,0.00002494,-0.00000983,0.00001535,-0.00000568,0.00001260,0.00001618
 ,-0.00017561,0.00002886,-0.00000960,-0.00000888,-0.00000714,-0.0000066
 1,0.00003679,0.00000764,-0.00005960,0.00006297,0.00002184,-0.00006029,
 0.00008508,0.00003604,0.00006381,0.00023587,0.00001392,-0.00000243,-0.
 00000942,-0.00000292,0.00001585,-0.00000532,0.00000891,0.00000453,0.00
 000224,0.00000201,0.00000026,0.00000488,-0.00000397,0.00010685,-0.0000
 0347,-0.00008307,0.00002586,0.00000531,0.00000372,0.00014131,0.0045360
 3,-0.00214474,-0.00035697,-0.00049284,0.00159790,-0.00389048,-0.015539
 84,-0.01530858,-0.12827798,-0.03226026,-0.20809568,-0.00003469,-0.0000
 8895,0.00000775,0.00000826,0.00000481,0.00014023,-0.00000449,-0.000003
 77,-0.00001083,0.00003986,-0.00000110,-0.00000938,-0.00001285,-0.00001
 336,0.00001205,0.00640276,0.00308953,0.00941574,-0.01287630,-0.0033252
 8,-0.01308549,0.13871366,0.04423347,0.22755986\\0.00000342,0.00000020,
 -0.00000182,0.00000162,0.,0.00000235,0.00000775,0.00000530,0.00000646,
 -0.00000194,0.00000473,-0.00000712,0.00000359,-0.00000066,0.00000405,-
 0.00000964,-0.00000320,0.00000650,0.00000931,0.00000761,-0.00000736,-0
 .00000529,0.00000442,0.00000383,0.00000876,-0.00000600,-0.00001595,-0.
 00000765,0.00000997,0.00000908,0.00000398,0.00000859,-0.00000104,-0.00
 000440,-0.00000873,-0.00000208,0.00000045,-0.00000062,0.00000253,-0.00
 000613,-0.00000169,-0.00000165,0.00000050,0.00000292,0.,0.00000005,-0.
 00000016,-0.00000132,0.00000010,0.00000188,0.00000196,0.00000657,-0.00
 000736,0.00000116,-0.00000091,0.00000221,0.00000145,-0.00000042,-0.000
 00150,0.00000148,0.00000100,-0.00000255,-0.00000062,0.00000120,-0.0000
 0151,-0.00000204,0.00000052,-0.00000185,-0.00000045,-0.00000039,-0.000
 00394,0.00000322,-0.00000113,0.00000007,-0.00000058,0.00000065,0.00000
 044,0.00000245,0.00000034,0.00000018,-0.00000142,-0.00000884,0.0000055
 2,0.00000239,0.00000025,0.00000009,-0.00000119,-0.00002732,-0.00001598
 ,-0.00001523,0.00000875,0.00001071,0.00000187,0.00000221,0.00001593,0.
 00000558,0.00000687,-0.00001258,-0.00000353,0.00000071,-0.00000198,0.0
 0000007,0.00000288,-0.00000425,0.00000217,0.00000207,-0.00000007,0.000
 00107,-0.00000068,-0.00000208,0.00000185,0.00000214,-0.00000185,0.0000
 0375,-0.00000030,0.00000054,-0.00000083,0.00000046,-0.00000145,-0.0000
 0213,-0.00000113,-0.00000132,0.00000111\\\@
 The archive entry for this job was punched.


 HOW IS IT THAT THE SKY FEEDS THE STARS?

                           -- LUCRETIUS
 Job cpu time:       3 days 11 hours  7 minutes 33.5 seconds.
 Elapsed time:       0 days  4 hours  9 minutes 24.8 seconds.
 File lengths (MBytes):  RWF=   3295 Int=      0 D2E=      0 Chk=     59 Scr=      1
 Normal termination of Gaussian 16 at Fri Jan 10 07:31:57 2025.
