 Entering Gaussian System, Link 0=g16
 Input=gjfs/data_set_3-catalyst-Mix_10_opt.gjf
 Output=gjfs/data_set_3-catalyst-Mix_10_opt.log
 Initial command:
 /usr/local/intel/g16/l1.exe "/scr/Gau-41473.inp" -scrdir="/scr/"
 Entering Link 1 = /usr/local/intel/g16/l1.exe PID=     41475.
  
 Copyright (c) 1988-2019, Gaussian, Inc.  All Rights Reserved.
  
 This is part of the Gaussian(R) 16 program.  It is based on
 the Gaussian(R) 09 system (copyright 2009, Gaussian, Inc.),
 the Gaussian(R) 03 system (copyright 2003, Gaussian, Inc.),
 the Gaussian(R) 98 system (copyright 1998, Gaussian, Inc.),
 the Gaussian(R) 94 system (copyright 1995, Gaussian, Inc.),
 the Gaussian 92(TM) system (copyright 1992, Gaussian, Inc.),
 the Gaussian 90(TM) system (copyright 1990, Gaussian, Inc.),
 the Gaussian 88(TM) system (copyright 1988, Gaussian, Inc.),
 the Gaussian 86(TM) system (copyright 1986, Carnegie Mellon
 University), and the Gaussian 82(TM) system (copyright 1983,
 Carnegie Mellon University). Gaussian is a federally registered
 trademark of Gaussian, Inc.
  
 This software contains proprietary and confidential information,
 including trade secrets, belonging to Gaussian, Inc.
  
 This software is provided under written license and may be
 used, copied, transmitted, or stored only in accord with that
 written license.
  
 The following legend is applicable only to US Government
 contracts under FAR:
  
                    RESTRICTED RIGHTS LEGEND
  
 Use, reproduction and disclosure by the US Government is
 subject to restrictions as set forth in subparagraphs (a)
 and (c) of the Commercial Computer Software - Restricted
 Rights clause in FAR 52.227-19.
  
 Gaussian, Inc.
 340 Quinnipiac St., Bldg. 40, Wallingford CT 06492
  
  
 ---------------------------------------------------------------
 Warning -- This program may not be used in any manner that
 competes with the business of Gaussian, Inc. or will provide
 assistance to any competitor of Gaussian, Inc.  The licensee
 of this program is prohibited from giving any competitor of
 Gaussian, Inc. access to this program.  By using this program,
 the user acknowledges that Gaussian, Inc. is engaged in the
 business of creating and licensing software in the field of
 computational chemistry and represents and warrants to the
 licensee that it is not a competitor of Gaussian, Inc. and that
 it will not use this program in any manner prohibited above.
 ---------------------------------------------------------------
  

 Cite this work as:
 Gaussian 16, Revision C.01,
 M. J. Frisch, G. W. Trucks, H. B. Schlegel, G. E. Scuseria, 
 M. A. Robb, J. R. Cheeseman, G. Scalmani, V. Barone, 
 G. A. Petersson, H. Nakatsuji, X. Li, M. Caricato, A. V. Marenich, 
 J. Bloino, B. G. Janesko, R. Gomperts, B. Mennucci, H. P. Hratchian, 
 J. V. Ortiz, A. F. Izmaylov, J. L. Sonnenberg, D. Williams-Young, 
 F. Ding, F. Lipparini, F. Egidi, J. Goings, B. Peng, A. Petrone, 
 T. Henderson, D. Ranasinghe, V. G. Zakrzewski, J. Gao, N. Rega, 
 G. Zheng, W. Liang, M. Hada, M. Ehara, K. Toyota, R. Fukuda, 
 J. Hasegawa, M. Ishida, T. Nakajima, Y. Honda, O. Kitao, H. Nakai, 
 T. Vreven, K. Throssell, J. A. Montgomery, Jr., J. E. Peralta, 
 F. Ogliaro, M. J. Bearpark, J. J. Heyd, E. N. Brothers, K. N. Kudin, 
 V. N. Staroverov, T. A. Keith, R. Kobayashi, J. Normand, 
 K. Raghavachari, A. P. Rendell, J. C. Burant, S. S. Iyengar, 
 J. Tomasi, M. Cossi, J. M. Millam, M. Klene, C. Adamo, R. Cammi, 
 J. W. Ochterski, R. L. Martin, K. Morokuma, O. Farkas, 
 J. B. Foresman, and D. J. Fox, Gaussian, Inc., Wallingford CT, 2019.
 
 ******************************************
 Gaussian 16:  ES64L-G16RevC.01  3-Jul-2019
                 9-Jan-2025 
 ******************************************
 %nprocshared=20
 Will use up to   20 processors via shared memory.
 %mem=30GB
 %chk=outputs/data_set_3-catalyst-Mix_10_opt.chk
 ----------------------------------
 #p M062X/DEF2TZVP opt freq pop=NBO
 ----------------------------------
 1/18=20,19=15,26=3,38=1/1,3;
 2/9=110,12=2,17=6,18=5,40=1/2;
 3/5=44,7=101,11=2,25=1,30=1,71=1,74=-55/1,2,3;
 4//1;
 5/5=2,38=5/2;
 6/7=2,8=2,9=2,10=2,28=1,40=1/1,7;
 7//1,2,3,16;
 1/18=20,19=15,26=3/3(2);
 2/9=110/2;
 99//99;
 2/9=110/2;
 3/5=44,7=101,11=2,25=1,30=1,71=1,74=-55/1,2,3;
 4/5=5,16=3,69=1/1;
 5/5=2,38=5/2;
 7//1,2,3,16;
 1/18=20,19=15,26=3/3(-5);
 2/9=110/2;
 6/7=2,8=2,9=2,10=2,19=2,28=1,40=1/1,7;
 99/9=1/99;
 Leave Link    1 at Thu Jan  9 07:37:00 2025, MaxMem=  4026531840 cpu:              63.4 elap:               5.2
 (Enter /usr/local/intel/g16/l101.exe)
 ------------------------------
 data_set_3-catalyst-Mix_10_opt
 ------------------------------
 Symbolic Z-matrix:
 Charge =  0 Multiplicity = 2
 O                     1.61169   1.73669  -0.57732 
 N                     0.81847   0.77914  -0.12604 
 C                    -0.60527   1.22049   0.09298 
 C                     0.52828  -1.68452  -0.64707 
 C                     1.41096  -0.59759   0.02822 
 C                    -1.22672   1.51604  -1.29036 
 C                    -0.55748   2.51466   0.93685 
 C                     2.76686  -0.60264  -0.7117 
 C                     1.68073  -0.88885   1.52298 
 H                     1.16515  -2.56878  -0.76167 
 H                     0.28203  -1.34667  -1.66113 
 H                    -2.2566    1.86836  -1.1745 
 H                    -1.2475    0.62208  -1.9219 
 H                    -0.63656   2.2853   -1.79454 
 H                    -1.56846   2.91837   1.05394 
 H                     0.06924   3.25822   0.44269 
 H                    -0.14032   2.3137    1.92998 
 H                     3.43409   0.16428  -0.31792 
 H                     2.63188  -0.40989  -1.77958 
 H                     3.23358  -1.58519  -0.58245 
 H                     2.13623  -1.87987   1.63101 
 H                     0.77839  -0.86604   2.13827 
 H                     2.37703  -0.14294   1.91753 
 C                    -1.4799    0.20135   0.87384 
 C                    -1.81751  -1.07995   0.13425 
 C                    -0.75428  -2.15313   0.07069 
 O                    -2.92958  -1.23111  -0.40299 
 H                    -2.42648   0.71027   1.07571 
 H                    -1.01208  -0.02801   1.83595 
 H                    -1.17157  -3.01222  -0.46143 
 H                    -0.50842  -2.47482   1.09063 
 
 ITRead=  0  0  0  0  0  0  0  0  0  0  0  0  0  0  0  0  0  0  0  0
 ITRead=  0  0  0  0  0  0  0  0  0  0  0
 MicOpt= -1 -1 -1 -1 -1 -1 -1 -1 -1 -1 -1 -1 -1 -1 -1 -1 -1 -1 -1 -1
 MicOpt= -1 -1 -1 -1 -1 -1 -1 -1 -1 -1 -1
 NAtoms=     31 NQM=       31 NQMF=       0 NMMI=      0 NMMIF=      0
                NMic=       0 NMicF=      0.
                    Isotopes and Nuclear Properties:
 (Nuclear quadrupole moments (NQMom) in fm**2, nuclear magnetic moments (NMagM)
  in nuclear magnetons)

  Atom         1           2           3           4           5           6           7           8           9          10
 IAtWgt=          16          14          12          12          12          12          12          12          12           1
 AtmWgt=  15.9949146  14.0030740  12.0000000  12.0000000  12.0000000  12.0000000  12.0000000  12.0000000  12.0000000   1.0078250
 NucSpn=           0           2           0           0           0           0           0           0           0           1
 AtZEff=  -0.0000000  -0.0000000  -0.0000000  -0.0000000  -0.0000000  -0.0000000  -0.0000000  -0.0000000  -0.0000000  -0.0000000
 NQMom=    0.0000000   2.0440000   0.0000000   0.0000000   0.0000000   0.0000000   0.0000000   0.0000000   0.0000000   0.0000000
 NMagM=    0.0000000   0.4037610   0.0000000   0.0000000   0.0000000   0.0000000   0.0000000   0.0000000   0.0000000   2.7928460
 AtZNuc=   8.0000000   7.0000000   6.0000000   6.0000000   6.0000000   6.0000000   6.0000000   6.0000000   6.0000000   1.0000000

  Atom        11          12          13          14          15          16          17          18          19          20
 IAtWgt=           1           1           1           1           1           1           1           1           1           1
 AtmWgt=   1.0078250   1.0078250   1.0078250   1.0078250   1.0078250   1.0078250   1.0078250   1.0078250   1.0078250   1.0078250
 NucSpn=           1           1           1           1           1           1           1           1           1           1
 AtZEff=  -0.0000000  -0.0000000  -0.0000000  -0.0000000  -0.0000000  -0.0000000  -0.0000000  -0.0000000  -0.0000000  -0.0000000
 NQMom=    0.0000000   0.0000000   0.0000000   0.0000000   0.0000000   0.0000000   0.0000000   0.0000000   0.0000000   0.0000000
 NMagM=    2.7928460   2.7928460   2.7928460   2.7928460   2.7928460   2.7928460   2.7928460   2.7928460   2.7928460   2.7928460
 AtZNuc=   1.0000000   1.0000000   1.0000000   1.0000000   1.0000000   1.0000000   1.0000000   1.0000000   1.0000000   1.0000000

  Atom        21          22          23          24          25          26          27          28          29          30
 IAtWgt=           1           1           1          12          12          12          16           1           1           1
 AtmWgt=   1.0078250   1.0078250   1.0078250  12.0000000  12.0000000  12.0000000  15.9949146   1.0078250   1.0078250   1.0078250
 NucSpn=           1           1           1           0           0           0           0           1           1           1
 AtZEff=  -0.0000000  -0.0000000  -0.0000000  -0.0000000  -0.0000000  -0.0000000  -0.0000000  -0.0000000  -0.0000000  -0.0000000
 NQMom=    0.0000000   0.0000000   0.0000000   0.0000000   0.0000000   0.0000000   0.0000000   0.0000000   0.0000000   0.0000000
 NMagM=    2.7928460   2.7928460   2.7928460   0.0000000   0.0000000   0.0000000   0.0000000   2.7928460   2.7928460   2.7928460
 AtZNuc=   1.0000000   1.0000000   1.0000000   6.0000000   6.0000000   6.0000000   8.0000000   1.0000000   1.0000000   1.0000000

  Atom        31
 IAtWgt=           1
 AtmWgt=   1.0078250
 NucSpn=           1
 AtZEff=  -0.0000000
 NQMom=    0.0000000
 NMagM=    2.7928460
 AtZNuc=   1.0000000
 Leave Link  101 at Thu Jan  9 07:37:07 2025, MaxMem=  4026531840 cpu:              25.2 elap:               2.1
 (Enter /usr/local/intel/g16/l103.exe)

 GradGradGradGradGradGradGradGradGradGradGradGradGradGradGradGradGradGrad
 Berny optimization.
 Initialization pass.
                           ----------------------------
                           !    Initial Parameters    !
                           ! (Angstroms and Degrees)  !
 --------------------------                            --------------------------
 ! Name  Definition              Value          Derivative Info.                !
 --------------------------------------------------------------------------------
 ! R1    R(1,2)                  1.3228         estimate D2E/DX2                !
 ! R2    R(2,3)                  1.5066         estimate D2E/DX2                !
 ! R3    R(2,5)                  1.5067         estimate D2E/DX2                !
 ! R4    R(3,6)                  1.5451         estimate D2E/DX2                !
 ! R5    R(3,7)                  1.5457         estimate D2E/DX2                !
 ! R6    R(3,24)                 1.5535         estimate D2E/DX2                !
 ! R7    R(4,5)                  1.5545         estimate D2E/DX2                !
 ! R8    R(4,10)                 1.0957         estimate D2E/DX2                !
 ! R9    R(4,11)                 1.0969         estimate D2E/DX2                !
 ! R10   R(4,26)                 1.5426         estimate D2E/DX2                !
 ! R11   R(5,8)                  1.5447         estimate D2E/DX2                !
 ! R12   R(5,9)                  1.5466         estimate D2E/DX2                !
 ! R13   R(6,12)                 1.0946         estimate D2E/DX2                !
 ! R14   R(6,13)                 1.0947         estimate D2E/DX2                !
 ! R15   R(6,14)                 1.0928         estimate D2E/DX2                !
 ! R16   R(7,15)                 1.0949         estimate D2E/DX2                !
 ! R17   R(7,16)                 1.0908         estimate D2E/DX2                !
 ! R18   R(7,17)                 1.0958         estimate D2E/DX2                !
 ! R19   R(8,18)                 1.0901         estimate D2E/DX2                !
 ! R20   R(8,19)                 1.0935         estimate D2E/DX2                !
 ! R21   R(8,20)                 1.0954         estimate D2E/DX2                !
 ! R22   R(9,21)                 1.096          estimate D2E/DX2                !
 ! R23   R(9,22)                 1.0924         estimate D2E/DX2                !
 ! R24   R(9,23)                 1.094          estimate D2E/DX2                !
 ! R25   R(24,25)                1.5175         estimate D2E/DX2                !
 ! R26   R(24,28)                1.0935         estimate D2E/DX2                !
 ! R27   R(24,29)                1.0941         estimate D2E/DX2                !
 ! R28   R(25,26)                1.512          estimate D2E/DX2                !
 ! R29   R(25,27)                1.2443         estimate D2E/DX2                !
 ! R30   R(26,30)                1.0933         estimate D2E/DX2                !
 ! R31   R(26,31)                1.0974         estimate D2E/DX2                !
 ! A1    A(1,2,3)              113.8424         estimate D2E/DX2                !
 ! A2    A(1,2,5)              117.4232         estimate D2E/DX2                !
 ! A3    A(3,2,5)              128.6377         estimate D2E/DX2                !
 ! A4    A(2,3,6)              107.8171         estimate D2E/DX2                !
 ! A5    A(2,3,7)              107.1827         estimate D2E/DX2                !
 ! A6    A(2,3,24)             114.3894         estimate D2E/DX2                !
 ! A7    A(6,3,7)              109.9427         estimate D2E/DX2                !
 ! A8    A(6,3,24)             110.4307         estimate D2E/DX2                !
 ! A9    A(7,3,24)             106.993          estimate D2E/DX2                !
 ! A10   A(5,4,10)             106.2401         estimate D2E/DX2                !
 ! A11   A(5,4,11)             108.2838         estimate D2E/DX2                !
 ! A12   A(5,4,26)             118.8397         estimate D2E/DX2                !
 ! A13   A(10,4,11)            106.4015         estimate D2E/DX2                !
 ! A14   A(10,4,26)            106.663          estimate D2E/DX2                !
 ! A15   A(11,4,26)            109.6986         estimate D2E/DX2                !
 ! A16   A(2,5,4)              111.7849         estimate D2E/DX2                !
 ! A17   A(2,5,8)              107.4048         estimate D2E/DX2                !
 ! A18   A(2,5,9)              109.8536         estimate D2E/DX2                !
 ! A19   A(4,5,8)              106.7413         estimate D2E/DX2                !
 ! A20   A(4,5,9)              112.7812         estimate D2E/DX2                !
 ! A21   A(8,5,9)              108.0132         estimate D2E/DX2                !
 ! A22   A(3,6,12)             110.1955         estimate D2E/DX2                !
 ! A23   A(3,6,13)             111.5886         estimate D2E/DX2                !
 ! A24   A(3,6,14)             109.2992         estimate D2E/DX2                !
 ! A25   A(12,6,13)            107.821          estimate D2E/DX2                !
 ! A26   A(12,6,14)            109.2902         estimate D2E/DX2                !
 ! A27   A(13,6,14)            108.5986         estimate D2E/DX2                !
 ! A28   A(3,7,15)             109.7884         estimate D2E/DX2                !
 ! A29   A(3,7,16)             109.9476         estimate D2E/DX2                !
 ! A30   A(3,7,17)             110.6719         estimate D2E/DX2                !
 ! A31   A(15,7,16)            109.1247         estimate D2E/DX2                !
 ! A32   A(15,7,17)            108.7979         estimate D2E/DX2                !
 ! A33   A(16,7,17)            108.4741         estimate D2E/DX2                !
 ! A34   A(5,8,18)             111.2186         estimate D2E/DX2                !
 ! A35   A(5,8,19)             111.0303         estimate D2E/DX2                !
 ! A36   A(5,8,20)             108.6879         estimate D2E/DX2                !
 ! A37   A(18,8,19)            107.7163         estimate D2E/DX2                !
 ! A38   A(18,8,20)            109.1246         estimate D2E/DX2                !
 ! A39   A(19,8,20)            109.0216         estimate D2E/DX2                !
 ! A40   A(5,9,21)             109.7575         estimate D2E/DX2                !
 ! A41   A(5,9,22)             113.3511         estimate D2E/DX2                !
 ! A42   A(5,9,23)             109.3401         estimate D2E/DX2                !
 ! A43   A(21,9,22)            107.8575         estimate D2E/DX2                !
 ! A44   A(21,9,23)            108.4468         estimate D2E/DX2                !
 ! A45   A(22,9,23)            107.9605         estimate D2E/DX2                !
 ! A46   A(3,24,25)            115.7347         estimate D2E/DX2                !
 ! A47   A(3,24,28)            105.9517         estimate D2E/DX2                !
 ! A48   A(3,24,29)            109.8035         estimate D2E/DX2                !
 ! A49   A(25,24,28)           106.8789         estimate D2E/DX2                !
 ! A50   A(25,24,29)           110.2862         estimate D2E/DX2                !
 ! A51   A(28,24,29)           107.7793         estimate D2E/DX2                !
 ! A52   A(24,25,26)           117.6028         estimate D2E/DX2                !
 ! A53   A(24,25,27)           120.7885         estimate D2E/DX2                !
 ! A54   A(26,25,27)           121.6078         estimate D2E/DX2                !
 ! A55   A(4,26,25)            112.866          estimate D2E/DX2                !
 ! A56   A(4,26,30)            109.2425         estimate D2E/DX2                !
 ! A57   A(4,26,31)            109.5867         estimate D2E/DX2                !
 ! A58   A(25,26,30)           108.0461         estimate D2E/DX2                !
 ! A59   A(25,26,31)           109.0588         estimate D2E/DX2                !
 ! A60   A(30,26,31)           107.9111         estimate D2E/DX2                !
 ! D1    D(1,2,3,6)             67.9854         estimate D2E/DX2                !
 ! D2    D(1,2,3,7)            -50.3338         estimate D2E/DX2                !
 ! D3    D(1,2,3,24)          -168.7636         estimate D2E/DX2                !
 ! D4    D(5,2,3,6)           -108.3048         estimate D2E/DX2                !
 ! D5    D(5,2,3,7)            133.3761         estimate D2E/DX2                !
 ! D6    D(5,2,3,24)            14.9462         estimate D2E/DX2                !
 ! D7    D(1,2,5,4)           -129.7921         estimate D2E/DX2                !
 ! D8    D(1,2,5,8)            -13.0244         estimate D2E/DX2                !
 ! D9    D(1,2,5,9)            104.2171         estimate D2E/DX2                !
 ! D10   D(3,2,5,4)             46.385          estimate D2E/DX2                !
 ! D11   D(3,2,5,8)            163.1526         estimate D2E/DX2                !
 ! D12   D(3,2,5,9)            -79.6059         estimate D2E/DX2                !
 ! D13   D(2,3,6,12)          -178.4042         estimate D2E/DX2                !
 ! D14   D(2,3,6,13)            61.8438         estimate D2E/DX2                !
 ! D15   D(2,3,6,14)           -58.2877         estimate D2E/DX2                !
 ! D16   D(7,3,6,12)           -61.8713         estimate D2E/DX2                !
 ! D17   D(7,3,6,13)           178.3767         estimate D2E/DX2                !
 ! D18   D(7,3,6,14)            58.2453         estimate D2E/DX2                !
 ! D19   D(24,3,6,12)           55.9637         estimate D2E/DX2                !
 ! D20   D(24,3,6,13)          -63.7883         estimate D2E/DX2                !
 ! D21   D(24,3,6,14)          176.0803         estimate D2E/DX2                !
 ! D22   D(2,3,7,15)           175.4688         estimate D2E/DX2                !
 ! D23   D(2,3,7,16)            55.4033         estimate D2E/DX2                !
 ! D24   D(2,3,7,17)           -64.414          estimate D2E/DX2                !
 ! D25   D(6,3,7,15)            58.5388         estimate D2E/DX2                !
 ! D26   D(6,3,7,16)           -61.5268         estimate D2E/DX2                !
 ! D27   D(6,3,7,17)           178.6559         estimate D2E/DX2                !
 ! D28   D(24,3,7,15)          -61.4068         estimate D2E/DX2                !
 ! D29   D(24,3,7,16)          178.5276         estimate D2E/DX2                !
 ! D30   D(24,3,7,17)           58.7104         estimate D2E/DX2                !
 ! D31   D(2,3,24,25)          -69.5048         estimate D2E/DX2                !
 ! D32   D(2,3,24,28)          172.2657         estimate D2E/DX2                !
 ! D33   D(2,3,24,29)           56.132          estimate D2E/DX2                !
 ! D34   D(6,3,24,25)           52.3256         estimate D2E/DX2                !
 ! D35   D(6,3,24,28)          -65.9038         estimate D2E/DX2                !
 ! D36   D(6,3,24,29)          177.9624         estimate D2E/DX2                !
 ! D37   D(7,3,24,25)          171.9578         estimate D2E/DX2                !
 ! D38   D(7,3,24,28)           53.7283         estimate D2E/DX2                !
 ! D39   D(7,3,24,29)          -62.4054         estimate D2E/DX2                !
 ! D40   D(10,4,5,2)           162.7495         estimate D2E/DX2                !
 ! D41   D(10,4,5,8)            45.5814         estimate D2E/DX2                !
 ! D42   D(10,4,5,9)           -72.8806         estimate D2E/DX2                !
 ! D43   D(11,4,5,2)            48.7969         estimate D2E/DX2                !
 ! D44   D(11,4,5,8)           -68.3712         estimate D2E/DX2                !
 ! D45   D(11,4,5,9)           173.1668         estimate D2E/DX2                !
 ! D46   D(26,4,5,2)           -77.1615         estimate D2E/DX2                !
 ! D47   D(26,4,5,8)           165.6704         estimate D2E/DX2                !
 ! D48   D(26,4,5,9)            47.2084         estimate D2E/DX2                !
 ! D49   D(5,4,26,25)           67.9748         estimate D2E/DX2                !
 ! D50   D(5,4,26,30)         -171.8063         estimate D2E/DX2                !
 ! D51   D(5,4,26,31)          -53.775          estimate D2E/DX2                !
 ! D52   D(10,4,26,25)        -172.1527         estimate D2E/DX2                !
 ! D53   D(10,4,26,30)         -51.9338         estimate D2E/DX2                !
 ! D54   D(10,4,26,31)          66.0975         estimate D2E/DX2                !
 ! D55   D(11,4,26,25)         -57.3039         estimate D2E/DX2                !
 ! D56   D(11,4,26,30)          62.915          estimate D2E/DX2                !
 ! D57   D(11,4,26,31)        -179.0537         estimate D2E/DX2                !
 ! D58   D(2,5,8,18)            57.8456         estimate D2E/DX2                !
 ! D59   D(2,5,8,19)           -62.0883         estimate D2E/DX2                !
 ! D60   D(2,5,8,20)           178.0001         estimate D2E/DX2                !
 ! D61   D(4,5,8,18)           177.8745         estimate D2E/DX2                !
 ! D62   D(4,5,8,19)            57.9407         estimate D2E/DX2                !
 ! D63   D(4,5,8,20)           -61.971          estimate D2E/DX2                !
 ! D64   D(9,5,8,18)           -60.5914         estimate D2E/DX2                !
 ! D65   D(9,5,8,19)           179.4748         estimate D2E/DX2                !
 ! D66   D(9,5,8,20)            59.5631         estimate D2E/DX2                !
 ! D67   D(2,5,9,21)          -178.5048         estimate D2E/DX2                !
 ! D68   D(2,5,9,22)            60.8333         estimate D2E/DX2                !
 ! D69   D(2,5,9,23)           -59.6632         estimate D2E/DX2                !
 ! D70   D(4,5,9,21)            56.0724         estimate D2E/DX2                !
 ! D71   D(4,5,9,22)           -64.5895         estimate D2E/DX2                !
 ! D72   D(4,5,9,23)           174.914          estimate D2E/DX2                !
 ! D73   D(8,5,9,21)           -61.6438         estimate D2E/DX2                !
 ! D74   D(8,5,9,22)           177.6943         estimate D2E/DX2                !
 ! D75   D(8,5,9,23)            57.1978         estimate D2E/DX2                !
 ! D76   D(3,24,25,26)          78.9809         estimate D2E/DX2                !
 ! D77   D(3,24,25,27)        -100.6943         estimate D2E/DX2                !
 ! D78   D(28,24,25,26)       -163.3039         estimate D2E/DX2                !
 ! D79   D(28,24,25,27)         17.0208         estimate D2E/DX2                !
 ! D80   D(29,24,25,26)        -46.4091         estimate D2E/DX2                !
 ! D81   D(29,24,25,27)        133.9157         estimate D2E/DX2                !
 ! D82   D(24,25,26,4)         -61.0901         estimate D2E/DX2                !
 ! D83   D(24,25,26,30)        178.0073         estimate D2E/DX2                !
 ! D84   D(24,25,26,31)         60.9571         estimate D2E/DX2                !
 ! D85   D(27,25,26,4)         118.5822         estimate D2E/DX2                !
 ! D86   D(27,25,26,30)         -2.3203         estimate D2E/DX2                !
 ! D87   D(27,25,26,31)       -119.3705         estimate D2E/DX2                !
 --------------------------------------------------------------------------------
 Trust Radius=3.00D-01 FncErr=1.00D-07 GrdErr=1.00D-06 EigMax=2.50D+02 EigMin=1.00D-04
 Number of steps in this run=    186 maximum allowed number of steps=    186.
 GradGradGradGradGradGradGradGradGradGradGradGradGradGradGradGradGradGrad

 Leave Link  103 at Thu Jan  9 07:37:16 2025, MaxMem=  4026531840 cpu:               0.3 elap:               5.2
 (Enter /usr/local/intel/g16/l202.exe)
                          Input orientation:                          
 ---------------------------------------------------------------------
 Center     Atomic      Atomic             Coordinates (Angstroms)
 Number     Number       Type             X           Y           Z
 ---------------------------------------------------------------------
      1          8           0        1.611692    1.736688   -0.577315
      2          7           0        0.818473    0.779143   -0.126037
      3          6           0       -0.605265    1.220491    0.092980
      4          6           0        0.528279   -1.684517   -0.647070
      5          6           0        1.410959   -0.597587    0.028223
      6          6           0       -1.226716    1.516035   -1.290365
      7          6           0       -0.557477    2.514663    0.936854
      8          6           0        2.766862   -0.602638   -0.711697
      9          6           0        1.680728   -0.888846    1.522975
     10          1           0        1.165147   -2.568781   -0.761665
     11          1           0        0.282030   -1.346670   -1.661125
     12          1           0       -2.256596    1.868361   -1.174499
     13          1           0       -1.247495    0.622081   -1.921895
     14          1           0       -0.636557    2.285301   -1.794535
     15          1           0       -1.568463    2.918369    1.053940
     16          1           0        0.069239    3.258216    0.442693
     17          1           0       -0.140315    2.313699    1.929980
     18          1           0        3.434089    0.164283   -0.317915
     19          1           0        2.631879   -0.409889   -1.779579
     20          1           0        3.233580   -1.585188   -0.582450
     21          1           0        2.136229   -1.879865    1.631008
     22          1           0        0.778389   -0.866035    2.138269
     23          1           0        2.377033   -0.142939    1.917525
     24          6           0       -1.479895    0.201349    0.873843
     25          6           0       -1.817510   -1.079949    0.134247
     26          6           0       -0.754279   -2.153133    0.070693
     27          8           0       -2.929575   -1.231109   -0.402992
     28          1           0       -2.426476    0.710272    1.075705
     29          1           0       -1.012083   -0.028006    1.835952
     30          1           0       -1.171568   -3.012221   -0.461430
     31          1           0       -0.508422   -2.474816    1.090633
 ---------------------------------------------------------------------
                    Distance matrix (angstroms):
                    1          2          3          4          5
     1  O    0.000000
     2  N    1.322778   0.000000
     3  C    2.372900   1.506581   0.000000
     4  C    3.589330   2.534819   3.204944   0.000000
     5  C    2.419878   1.506725   2.715651   1.554529   0.000000
     6  C    2.934909   2.466063   1.545054   3.706396   3.628140
     7  C    2.757399   2.456625   1.545732   4.617445   3.792947
     8  C    2.612455   2.459377   3.916956   2.487145   1.544662
     9  C    3.362947   2.498982   3.423442   2.582697   1.546574
    10  H    4.332488   3.425318   4.268883   1.095744   2.137745
    11  H    3.528419   2.676443   3.233341   1.096853   2.165526
    12  H    3.916327   3.426619   2.180168   4.544959   4.580218
    13  H    3.350402   2.741897   2.197789   3.177884   3.515384
    14  H    2.614809   2.677594   2.167375   4.293364   3.978167
    15  H    3.764405   3.415567   2.175772   5.336321   4.721334
    16  H    2.394708   2.651529   2.174759   5.082215   4.103561
    17  H    3.112716   2.738858   2.187659   4.803534   3.807718
    18  H    2.420925   2.693755   4.195330   3.459788   2.189363
    19  H    2.663459   2.726984   4.079671   2.707838   2.189526
    20  H    3.696675   3.410442   4.802580   2.707895   2.161070
    21  H    4.269811   3.448770   4.415147   2.795229   2.176964
    22  H    3.852656   2.799160   3.232846   2.913860   2.219122
    23  H    3.216049   2.730474   3.752600   3.517315   2.170130
    24  C    3.744467   2.572178   1.553504   3.146813   3.116153
    25  C    4.494351   3.236105   2.600628   2.545326   3.266026
    26  C    4.598743   3.333241   3.376987   1.542640   2.666418
    27  O    5.427828   4.262122   3.414491   3.495984   4.407667
    28  H    4.482500   3.461014   2.131404   4.175350   4.187317
    29  H    3.977713   2.802111   2.182246   3.358890   3.076270
    30  H    5.505643   4.295020   4.306265   2.164888   3.569266
    31  H    5.001370   3.718761   3.828836   2.172311   2.887339
                    6          7          8          9         10
     6  C    0.000000
     7  C    2.530937   0.000000
     8  C    4.557664   4.846289   0.000000
     9  C    4.706545   4.115455   2.501072   0.000000
    10  H    4.763009   5.629725   2.536475   2.882288   0.000000
    11  H    3.257124   4.729076   2.762135   3.507770   1.755699
    12  H    1.094628   2.786130   5.617397   5.511903   5.618451
    13  H    1.094722   3.497204   4.368018   4.767024   4.165162
    14  H    1.092815   2.742143   4.593037   5.143043   5.279685
    15  H    2.753016   1.094888   5.857474   5.027139   6.393580
    16  H    2.778162   1.090797   4.849328   4.578431   6.050239
    17  H    3.491011   1.095769   4.892357   3.706500   5.726063
    18  H    4.949343   4.799097   1.090149   2.751769   3.579756
    19  H    4.340192   5.109208   1.093501   3.470007   2.801476
    20  H    5.478409   5.786983   1.095415   2.707223   2.297387
    21  H    5.601424   5.200940   2.741765   1.096025   2.672544
    22  H    4.631440   3.828453   3.485069   1.092393   3.385047
    23  H    5.101937   4.078715   2.697424   1.094024   3.812012
    24  C    2.544857   2.491234   4.603833   3.405794   4.164703
    25  C    3.019551   3.892698   4.686141   3.768654   3.451887
    26  C    3.941887   4.751556   3.926144   3.104320   2.133021
    27  O    3.351710   4.631722   5.739309   5.008132   4.322587
    28  H    2.772538   2.601589   5.647061   4.430164   5.198834
    29  H    3.493421   2.734997   4.593598   2.844333   4.235975
    30  H    4.603833   5.734000   4.623846   4.072122   2.397294
    31  H    4.702339   4.992089   4.181020   2.737626   2.498133
                   11         12         13         14         15
    11  H    0.000000
    12  H    4.125270   0.000000
    13  H    2.506677   1.769209   0.000000
    14  H    3.748708   1.784043   1.776448   0.000000
    15  H    5.383908   2.557730   3.772473   3.063174   0.000000
    16  H    5.067179   3.155395   3.778131   2.539665   1.780783
    17  H    5.145164   3.783485   4.350214   3.757536   1.781201
    18  H    3.744685   6.001793   4.969865   4.821751   5.873032
    19  H    2.532465   5.427129   4.016809   4.236384   6.062096
    20  H    3.151520   6.513030   5.171671   5.606050   6.783761
    21  H    3.815821   6.420045   5.507490   6.063934   6.089401
    22  H    3.861706   5.259514   4.775314   5.234495   4.583143
    23  H    4.317956   5.922538   5.335129   5.362599   5.067970
    24  C    3.453521   2.752798   2.836755   3.489171   2.724422
    25  C    2.775350   3.255479   2.729385   4.054597   4.110281
    26  C    2.173364   4.469885   3.451881   4.815873   5.229704
    27  O    3.451182   3.264175   2.927588   4.422608   4.603634
    28  H    4.365461   2.536424   3.222325   3.731327   2.369040
    29  H    3.955142   3.769328   3.820922   4.321209   3.098746
    30  H    2.515209   5.050330   3.917509   5.488820   6.133985
    31  H    3.077288   5.200973   4.383187   5.567704   5.496497
                   16         17         18         19         20
    16  H    0.000000
    17  H    1.774274   0.000000
    18  H    4.633914   4.738078   0.000000
    19  H    4.996060   5.372506   1.763427   0.000000
    20  H    5.875588   5.735572   1.780683   1.782271   0.000000
    21  H    5.664311   4.781006   3.108260   3.746812   2.488053
    22  H    4.515232   3.316340   3.761268   4.358099   3.734629
    23  H    4.366795   3.517423   2.491775   3.715479   3.010586
    24  C    3.454004   2.715128   5.056570   4.931627   5.246842
    25  C    4.740742   4.189807   5.415889   4.889660   5.126639
    26  C    5.486280   4.877139   4.802485   4.234203   4.080708
    27  O    5.464623   5.078227   6.515411   5.787846   6.175926
    28  H    3.622336   2.920153   6.048678   5.915603   6.328890
    29  H    3.729569   2.500481   4.944144   5.147461   5.128269
    30  H    6.455650   5.928554   5.596682   4.793314   4.632105
    31  H    5.798377   4.875437   4.948964   4.729009   4.194428
                   21         22         23         24         25
    21  H    0.000000
    22  H    1.768868   0.000000
    23  H    1.776792   1.768406   0.000000
    24  C    4.240413   2.799630   4.010449   0.000000
    25  C    4.302582   3.286420   4.653199   1.517469   0.000000
    26  C    3.296103   2.877597   4.154128   2.591361   1.512026
    27  O    5.497309   4.510020   5.893132   2.404956   1.244252
    28  H    5.275931   3.726251   4.950791   1.093511   2.112362
    29  H    3.658313   1.999870   3.392045   1.094123   2.156640
    30  H    4.074561   3.894468   5.146336   3.493573   2.122675
    31  H    2.764082   2.311190   3.800954   2.855279   2.138700
                   26         27         28         29         30
    26  C    0.000000
    27  O    2.409651   0.000000
    28  H    3.464878   2.491709   0.000000
    29  H    2.774665   3.183882   1.767353   0.000000
    30  H    1.093306   2.503271   4.218357   3.769475   0.000000
    31  H    1.097362   3.104787   3.718056   2.606924   1.771289
                   31
    31  H    0.000000
 Stoichiometry    C10H18NO2(2)
 Framework group  C1[X(C10H18NO2)]
 Deg. of freedom    87
 Full point group                 C1      NOp   1
 Largest Abelian subgroup         C1      NOp   1
 Largest concise Abelian subgroup C1      NOp   1
                         Standard orientation:                         
 ---------------------------------------------------------------------
 Center     Atomic      Atomic             Coordinates (Angstroms)
 Number     Number       Type             X           Y           Z
 ---------------------------------------------------------------------
      1          8           0        1.611692    1.736688   -0.577315
      2          7           0        0.818473    0.779143   -0.126037
      3          6           0       -0.605265    1.220491    0.092980
      4          6           0        0.528279   -1.684517   -0.647070
      5          6           0        1.410959   -0.597587    0.028223
      6          6           0       -1.226716    1.516035   -1.290365
      7          6           0       -0.557477    2.514663    0.936854
      8          6           0        2.766862   -0.602638   -0.711697
      9          6           0        1.680728   -0.888846    1.522975
     10          1           0        1.165147   -2.568781   -0.761665
     11          1           0        0.282030   -1.346670   -1.661125
     12          1           0       -2.256596    1.868361   -1.174499
     13          1           0       -1.247495    0.622081   -1.921895
     14          1           0       -0.636557    2.285301   -1.794535
     15          1           0       -1.568463    2.918369    1.053940
     16          1           0        0.069239    3.258216    0.442693
     17          1           0       -0.140315    2.313699    1.929980
     18          1           0        3.434089    0.164283   -0.317915
     19          1           0        2.631879   -0.409889   -1.779579
     20          1           0        3.233580   -1.585188   -0.582450
     21          1           0        2.136229   -1.879865    1.631008
     22          1           0        0.778389   -0.866035    2.138269
     23          1           0        2.377033   -0.142939    1.917525
     24          6           0       -1.479895    0.201349    0.873843
     25          6           0       -1.817510   -1.079949    0.134247
     26          6           0       -0.754279   -2.153133    0.070693
     27          8           0       -2.929575   -1.231109   -0.402992
     28          1           0       -2.426476    0.710272    1.075705
     29          1           0       -1.012083   -0.028006    1.835952
     30          1           0       -1.171568   -3.012221   -0.461430
     31          1           0       -0.508422   -2.474816    1.090633
 ---------------------------------------------------------------------
 Rotational constants (GHZ):           0.9906256           0.8038830           0.5679576
 Leave Link  202 at Thu Jan  9 07:37:21 2025, MaxMem=  4026531840 cpu:               0.1 elap:               2.1
 (Enter /usr/local/intel/g16/l301.exe)
 Standard basis: def2TZVP (5D, 7F)
 Ernie: Thresh=  0.10000D-02 Tol=  0.10000D-05 Strict=F.
 There are   576 symmetry adapted cartesian basis functions of A   symmetry.
 There are   511 symmetry adapted basis functions of A   symmetry.
   511 basis functions,   807 primitive gaussians,   576 cartesian basis functions
    51 alpha electrons       50 beta electrons
       nuclear repulsion energy       905.6739739133 Hartrees.
 IExCor= 4336 DFT=T Ex+Corr=M062X ExCW=0 ScaHFX=  0.540000
 ScaDFX=  1.000000  1.000000  1.000000  1.000000 ScalE2=  1.000000  1.000000
 IRadAn=      5 IRanWt=     -1 IRanGd=            0 ICorTp=0 IEmpDi=  4
 NAtoms=   31 NActive=   31 NUniq=   31 SFac= 1.00D+00 NAtFMM=   60 NAOKFM=F Big=F
 Integral buffers will be    131072 words long.
 Raffenetti 2 integral format.
 Two-electron integral symmetry is turned on.
 Leave Link  301 at Thu Jan  9 07:37:24 2025, MaxMem=  4026531840 cpu:               1.3 elap:               0.1
 (Enter /usr/local/intel/g16/l302.exe)
 NPDir=0 NMtPBC=     1 NCelOv=     1 NCel=       1 NClECP=     1 NCelD=      1
         NCelK=      1 NCelE2=     1 NClLst=     1 CellRange=     0.0.
 One-electron integrals computed using PRISM.
 One-electron integral symmetry used in STVInt
   1 Symmetry operations used in ECPInt.
 ECPInt:  NShTT=   23220 NPrTT=   68236 LenC2=   22463 LenP2D=   50820.
 LDataN:  DoStor=T MaxTD1= 6 Len=  172
 NBasis=   511 RedAO= T EigKep=  5.17D-05  NBF=   511
 NBsUse=   511 1.00D-06 EigRej= -1.00D+00 NBFU=   511
 Precomputing XC quadrature grid using
 IXCGrd= 4 IRadAn=           5 IRanWt=          -1 IRanGd=           0 AccXCQ= 0.00D+00.
 Generated NRdTot=       0 NPtTot=           0 NUsed=           0 NTot=          32
 NSgBfM=   572   572   572   572   572 MxSgAt=    31 MxSgA2=    31.
 Leave Link  302 at Thu Jan  9 07:37:28 2025, MaxMem=  4026531840 cpu:              19.8 elap:               1.2
 (Enter /usr/local/intel/g16/l303.exe)
 DipDrv:  MaxL=1.
 Leave Link  303 at Thu Jan  9 07:37:33 2025, MaxMem=  4026531840 cpu:               2.9 elap:               0.9
 (Enter /usr/local/intel/g16/l401.exe)
 ExpMin= 9.52D-02 ExpMax= 2.70D+04 ExpMxC= 9.22D+02 IAcc=3 IRadAn=         5 AccDes= 0.00D+00
 Harris functional with IExCor= 1009 and IRadAn=       5 diagonalized for initial guess.
 HarFok:  IExCor= 1009 AccDes= 0.00D+00 IRadAn=         5 IDoV= 1 UseB2=F ITyADJ=14
 ICtDFT=  3500011 ScaDFX=  1.000000  1.000000  1.000000  1.000000
 FoFCou: FMM=F IPFlag=           0 FMFlag=      100000 FMFlg1=           0
         NFxFlg=           0 DoJE=T BraDBF=F KetDBF=T FulRan=T
         wScrn=  0.000000 ICntrl=       500 IOpCl=  0 I1Cent=   200000004 NGrid=           0
         NMat0=    1 NMatS0=      1 NMatT0=    0 NMatD0=    1 NMtDS0=    0 NMtDT0=    0
 Petite list used in FoFCou.
 Harris En= -596.768794363430    
 JPrj=0 DoOrth=F DoCkMO=F.
 Initial guess <Sx>= 0.0000 <Sy>= 0.0000 <Sz>= 0.5000 <S**2>= 0.7500 S= 0.5000
 Leave Link  401 at Thu Jan  9 07:37:41 2025, MaxMem=  4026531840 cpu:              66.0 elap:               3.5
 (Enter /usr/local/intel/g16/l502.exe)
 Integral symmetry usage will be decided dynamically.
 UHF open shell SCF:
 Using DIIS extrapolation, IDIIS=  1040.
 NGot=  4026531840 LenX=  4025850746 LenY=  4025518394
 Requested convergence on RMS density matrix=1.00D-08 within 128 cycles.
 Requested convergence on MAX density matrix=1.00D-06.
 Requested convergence on             energy=1.00D-06.
 No special actions if energy rises.
 Fock matrices will be formed incrementally for  20 cycles.
 Integral accuracy reduced to 1.0D-05 until final iterations.

 Cycle   1  Pass 0  IDiag  1:
 FoFJK:  IHMeth= 1 ICntrl=       0 DoSepK=F KAlg= 0 I1Cent=           0 FoldK=F
 IRaf= 930000000 NMat=       1 IRICut=       1 DoRegI=T DoRafI=F ISym2E= 0 IDoP0=0 IntGTp=1.
 FoFCou: FMM=F IPFlag=           0 FMFlag=      100000 FMFlg1=           0
         NFxFlg=           0 DoJE=F BraDBF=F KetDBF=F FulRan=T
         wScrn=  0.000000 ICntrl=         0 IOpCl=  1 I1Cent=           0 NGrid=           0
         NMat0=    1 NMatS0=      1 NMatT0=    0 NMatD0=    1 NMtDS0=    0 NMtDT0=    0
 Symmetry not used in FoFCou.
 E= -596.520448745053    
 DIIS: error= 2.20D-02 at cycle   1 NSaved=   1.
 NSaved= 1 IEnMin= 1 EnMin= -596.520448745053     IErMin= 1 ErrMin= 2.20D-02
 ErrMax= 2.20D-02  0.00D+00 EMaxC= 1.00D-01 BMatC= 2.32D+00 BMatP= 2.32D+00
 IDIUse=3 WtCom= 7.80D-01 WtEn= 2.20D-01
 Coeff-Com:  0.100D+01
 Coeff-En:   0.100D+01
 Coeff:      0.100D+01
 Gap=     0.303 Goal=   None    Shift=    0.000
 Gap=     0.216 Goal=   None    Shift=    0.000
 GapD=    0.216 DampG=1.000 DampE=0.500 DampFc=0.5000 IDamp=-1.
 Damping current iteration by 5.00D-01
 RMSDP=3.55D-03 MaxDP=4.66D-01              OVMax= 1.77D-01

 Cycle   2  Pass 0  IDiag  1:
 RMSU=  1.77D-03    CP:  9.90D-01
 E= -596.744355972054     Delta-E=       -0.223907227001 Rises=F Damp=T
 DIIS: error= 4.68D-03 at cycle   2 NSaved=   2.
 NSaved= 2 IEnMin= 2 EnMin= -596.744355972054     IErMin= 2 ErrMin= 4.68D-03
 ErrMax= 4.68D-03  0.00D+00 EMaxC= 1.00D-01 BMatC= 2.00D-01 BMatP= 2.32D+00
 IDIUse=3 WtCom= 9.53D-01 WtEn= 4.68D-02
 Coeff-Com: -0.188D-03 0.100D+01
 Coeff-En:   0.000D+00 0.100D+01
 Coeff:     -0.179D-03 0.100D+01
 Gap=     0.306 Goal=   None    Shift=    0.000
 Gap=     0.318 Goal=   None    Shift=    0.000
 RMSDP=1.06D-03 MaxDP=1.18D-01 DE=-2.24D-01 OVMax= 1.55D-01

 Cycle   3  Pass 0  IDiag  1:
 RMSU=  1.01D-03    CP:  9.74D-01  8.44D-01
 E= -596.958318016987     Delta-E=       -0.213962044933 Rises=F Damp=F
 DIIS: error= 6.79D-03 at cycle   3 NSaved=   3.
 NSaved= 3 IEnMin= 3 EnMin= -596.958318016987     IErMin= 2 ErrMin= 4.68D-03
 ErrMax= 6.79D-03  0.00D+00 EMaxC= 1.00D-01 BMatC= 1.60D-01 BMatP= 2.00D-01
 IDIUse=3 WtCom= 9.32D-01 WtEn= 6.79D-02
 Coeff-Com: -0.666D-01 0.502D+00 0.565D+00
 Coeff-En:   0.000D+00 0.000D+00 0.100D+01
 Coeff:     -0.621D-01 0.468D+00 0.594D+00
 Gap=     0.275 Goal=   None    Shift=    0.000
 Gap=     0.303 Goal=   None    Shift=    0.000
 RMSDP=4.28D-04 MaxDP=2.51D-02 DE=-2.14D-01 OVMax= 8.83D-02

 Cycle   4  Pass 0  IDiag  1:
 RMSU=  3.89D-04    CP:  9.78D-01  9.29D-01  9.12D-01
 E= -596.982180386479     Delta-E=       -0.023862369491 Rises=F Damp=F
 DIIS: error= 3.09D-03 at cycle   4 NSaved=   4.
 NSaved= 4 IEnMin= 4 EnMin= -596.982180386479     IErMin= 4 ErrMin= 3.09D-03
 ErrMax= 3.09D-03  0.00D+00 EMaxC= 1.00D-01 BMatC= 3.49D-02 BMatP= 1.60D-01
 IDIUse=3 WtCom= 9.69D-01 WtEn= 3.09D-02
 Coeff-Com: -0.185D-01 0.575D-01 0.336D+00 0.625D+00
 Coeff-En:   0.000D+00 0.000D+00 0.198D+00 0.802D+00
 Coeff:     -0.180D-01 0.557D-01 0.332D+00 0.630D+00
 Gap=     0.272 Goal=   None    Shift=    0.000
 Gap=     0.306 Goal=   None    Shift=    0.000
 RMSDP=1.92D-04 MaxDP=1.05D-02 DE=-2.39D-02 OVMax= 1.71D-02

 Cycle   5  Pass 0  IDiag  1:
 RMSU=  1.10D-04    CP:  9.75D-01  8.90D-01  9.67D-01  6.74D-01
 E= -596.988874562191     Delta-E=       -0.006694175712 Rises=F Damp=F
 DIIS: error= 3.56D-04 at cycle   5 NSaved=   5.
 NSaved= 5 IEnMin= 5 EnMin= -596.988874562191     IErMin= 5 ErrMin= 3.56D-04
 ErrMax= 3.56D-04  0.00D+00 EMaxC= 1.00D-01 BMatC= 5.82D-04 BMatP= 3.49D-02
 IDIUse=3 WtCom= 9.96D-01 WtEn= 3.56D-03
 Coeff-Com: -0.289D-02 0.587D-03 0.106D+00 0.226D+00 0.671D+00
 Coeff-En:   0.000D+00 0.000D+00 0.000D+00 0.000D+00 0.100D+01
 Coeff:     -0.288D-02 0.585D-03 0.105D+00 0.225D+00 0.672D+00
 Gap=     0.270 Goal=   None    Shift=    0.000
 Gap=     0.307 Goal=   None    Shift=    0.000
 RMSDP=3.42D-05 MaxDP=2.10D-03 DE=-6.69D-03 OVMax= 8.15D-03

 Cycle   6  Pass 0  IDiag  1:
 RMSU=  2.92D-05    CP:  9.75D-01  8.88D-01  9.79D-01  7.04D-01  9.63D-01
 E= -596.989027459597     Delta-E=       -0.000152897407 Rises=F Damp=F
 DIIS: error= 1.82D-04 at cycle   6 NSaved=   6.
 NSaved= 6 IEnMin= 6 EnMin= -596.989027459597     IErMin= 6 ErrMin= 1.82D-04
 ErrMax= 1.82D-04  0.00D+00 EMaxC= 1.00D-01 BMatC= 1.26D-04 BMatP= 5.82D-04
 IDIUse=3 WtCom= 9.98D-01 WtEn= 1.82D-03
 Coeff-Com:  0.310D-02-0.108D-01-0.153D-01-0.364D-01 0.224D+00 0.835D+00
 Coeff-En:   0.000D+00 0.000D+00 0.000D+00 0.000D+00 0.000D+00 0.100D+01
 Coeff:      0.309D-02-0.108D-01-0.153D-01-0.363D-01 0.224D+00 0.836D+00
 Gap=     0.272 Goal=   None    Shift=    0.000
 Gap=     0.308 Goal=   None    Shift=    0.000
 RMSDP=2.86D-05 MaxDP=2.31D-03 DE=-1.53D-04 OVMax= 4.27D-03

 Cycle   7  Pass 0  IDiag  1:
 RMSU=  1.41D-05    CP:  9.75D-01  8.82D-01  9.87D-01  7.03D-01  1.14D+00
                    CP:  1.27D+00
 E= -596.989075109488     Delta-E=       -0.000047649891 Rises=F Damp=F
 DIIS: error= 1.09D-04 at cycle   7 NSaved=   7.
 NSaved= 7 IEnMin= 7 EnMin= -596.989075109488     IErMin= 7 ErrMin= 1.09D-04
 ErrMax= 1.09D-04  0.00D+00 EMaxC= 1.00D-01 BMatC= 2.04D-05 BMatP= 1.26D-04
 IDIUse=3 WtCom= 9.99D-01 WtEn= 1.09D-03
 Coeff-Com:  0.142D-02-0.231D-02-0.195D-01-0.562D-01-0.102D+00 0.974D-01
 Coeff-Com:  0.108D+01
 Coeff-En:   0.000D+00 0.000D+00 0.000D+00 0.000D+00 0.000D+00 0.000D+00
 Coeff-En:   0.100D+01
 Coeff:      0.141D-02-0.231D-02-0.195D-01-0.561D-01-0.102D+00 0.973D-01
 Coeff:      0.108D+01
 Gap=     0.272 Goal=   None    Shift=    0.000
 Gap=     0.308 Goal=   None    Shift=    0.000
 RMSDP=1.70D-05 MaxDP=1.30D-03 DE=-4.76D-05 OVMax= 4.12D-03

 Cycle   8  Pass 0  IDiag  1:
 RMSU=  6.52D-06    CP:  9.74D-01  8.77D-01  9.90D-01  6.96D-01  1.23D+00
                    CP:  1.50D+00  1.39D+00
 E= -596.989088379596     Delta-E=       -0.000013270108 Rises=F Damp=F
 DIIS: error= 6.06D-05 at cycle   8 NSaved=   8.
 NSaved= 8 IEnMin= 8 EnMin= -596.989088379596     IErMin= 8 ErrMin= 6.06D-05
 ErrMax= 6.06D-05  0.00D+00 EMaxC= 1.00D-01 BMatC= 4.11D-06 BMatP= 2.04D-05
 IDIUse=1 WtCom= 1.00D+00 WtEn= 0.00D+00
 Coeff-Com:  0.118D-03 0.473D-03-0.247D-02-0.128D-01-0.539D-01-0.812D-01
 Coeff-Com:  0.295D+00 0.855D+00
 Coeff:      0.118D-03 0.473D-03-0.247D-02-0.128D-01-0.539D-01-0.812D-01
 Coeff:      0.295D+00 0.855D+00
 Gap=     0.272 Goal=   None    Shift=    0.000
 Gap=     0.308 Goal=   None    Shift=    0.000
 RMSDP=6.36D-06 MaxDP=4.49D-04 DE=-1.33D-05 OVMax= 1.15D-03

 Initial convergence to 1.0D-05 achieved.  Increase integral accuracy.
 Cycle   9  Pass 1  IDiag  1:
 E= -596.989079436859     Delta-E=        0.000008942737 Rises=F Damp=F
 DIIS: error= 7.09D-05 at cycle   1 NSaved=   1.
 NSaved= 1 IEnMin= 1 EnMin= -596.989079436859     IErMin= 1 ErrMin= 7.09D-05
 ErrMax= 7.09D-05  0.00D+00 EMaxC= 1.00D-01 BMatC= 1.66D-05 BMatP= 1.66D-05
 IDIUse=1 WtCom= 1.00D+00 WtEn= 0.00D+00
 Coeff-Com:  0.100D+01
 Coeff:      0.100D+01
 Gap=     0.272 Goal=   None    Shift=    0.000
 Gap=     0.308 Goal=   None    Shift=    0.000
 RMSDP=6.36D-06 MaxDP=4.49D-04 DE= 8.94D-06 OVMax= 5.93D-04

 Cycle  10  Pass 1  IDiag  1:
 RMSU=  4.08D-05    CP:  1.00D+00
 E= -596.989081068905     Delta-E=       -0.000001632046 Rises=F Damp=F
 DIIS: error= 2.56D-05 at cycle   2 NSaved=   2.
 NSaved= 2 IEnMin= 2 EnMin= -596.989081068905     IErMin= 2 ErrMin= 2.56D-05
 ErrMax= 2.56D-05  0.00D+00 EMaxC= 1.00D-01 BMatC= 3.05D-06 BMatP= 1.66D-05
 IDIUse=1 WtCom= 1.00D+00 WtEn= 0.00D+00
 Coeff-Com:  0.194D+00 0.806D+00
 Coeff:      0.194D+00 0.806D+00
 Gap=     0.272 Goal=   None    Shift=    0.000
 Gap=     0.308 Goal=   None    Shift=    0.000
 RMSDP=3.93D-06 MaxDP=4.22D-04 DE=-1.63D-06 OVMax= 3.12D-04

 Cycle  11  Pass 1  IDiag  1:
 RMSU=  3.74D-06    CP:  1.00D+00  1.03D+00
 E= -596.989081037006     Delta-E=        0.000000031898 Rises=F Damp=F
 DIIS: error= 3.08D-05 at cycle   3 NSaved=   3.
 NSaved= 3 IEnMin= 2 EnMin= -596.989081068905     IErMin= 2 ErrMin= 2.56D-05
 ErrMax= 3.08D-05  0.00D+00 EMaxC= 1.00D-01 BMatC= 3.63D-06 BMatP= 3.05D-06
 IDIUse=1 WtCom= 1.00D+00 WtEn= 0.00D+00
 Coeff-Com: -0.148D-01 0.526D+00 0.488D+00
 Coeff:     -0.148D-01 0.526D+00 0.488D+00
 Gap=     0.272 Goal=   None    Shift=    0.000
 Gap=     0.308 Goal=   None    Shift=    0.000
 RMSDP=1.77D-06 MaxDP=1.80D-04 DE= 3.19D-08 OVMax= 1.93D-04

 Cycle  12  Pass 1  IDiag  1:
 RMSU=  9.41D-07    CP:  1.00D+00  1.04D+00  6.14D-01
 E= -596.989081708246     Delta-E=       -0.000000671239 Rises=F Damp=F
 DIIS: error= 4.95D-06 at cycle   4 NSaved=   4.
 NSaved= 4 IEnMin= 4 EnMin= -596.989081708246     IErMin= 4 ErrMin= 4.95D-06
 ErrMax= 4.95D-06  0.00D+00 EMaxC= 1.00D-01 BMatC= 4.03D-08 BMatP= 3.05D-06
 IDIUse=1 WtCom= 1.00D+00 WtEn= 0.00D+00
 Coeff-Com: -0.362D-02-0.825D-01-0.247D-01 0.111D+01
 Coeff:     -0.362D-02-0.825D-01-0.247D-01 0.111D+01
 Gap=     0.272 Goal=   None    Shift=    0.000
 Gap=     0.308 Goal=   None    Shift=    0.000
 RMSDP=5.62D-07 MaxDP=4.74D-05 DE=-6.71D-07 OVMax= 1.88D-04

 Cycle  13  Pass 1  IDiag  1:
 RMSU=  3.62D-07    CP:  1.00D+00  1.04D+00  6.63D-01  1.41D+00
 E= -596.989081740871     Delta-E=       -0.000000032625 Rises=F Damp=F
 DIIS: error= 5.57D-06 at cycle   5 NSaved=   5.
 NSaved= 5 IEnMin= 5 EnMin= -596.989081740871     IErMin= 4 ErrMin= 4.95D-06
 ErrMax= 5.57D-06  0.00D+00 EMaxC= 1.00D-01 BMatC= 3.56D-08 BMatP= 4.03D-08
 IDIUse=1 WtCom= 1.00D+00 WtEn= 0.00D+00
 Coeff-Com:  0.557D-02-0.356D+00-0.285D+00 0.782D+00 0.855D+00
 Coeff:      0.557D-02-0.356D+00-0.285D+00 0.782D+00 0.855D+00
 Gap=     0.272 Goal=   None    Shift=    0.000
 Gap=     0.308 Goal=   None    Shift=    0.000
 RMSDP=6.29D-07 MaxDP=3.84D-05 DE=-3.26D-08 OVMax= 1.31D-04

 Cycle  14  Pass 1  IDiag  1:
 RMSU=  2.59D-07    CP:  1.00D+00  1.04D+00  7.24D-01  1.93D+00  1.51D+00
 E= -596.989081757535     Delta-E=       -0.000000016664 Rises=F Damp=F
 DIIS: error= 1.34D-06 at cycle   6 NSaved=   6.
 NSaved= 6 IEnMin= 6 EnMin= -596.989081757535     IErMin= 6 ErrMin= 1.34D-06
 ErrMax= 1.34D-06  0.00D+00 EMaxC= 1.00D-01 BMatC= 4.60D-09 BMatP= 3.56D-08
 IDIUse=1 WtCom= 1.00D+00 WtEn= 0.00D+00
 Coeff-Com:  0.341D-02-0.176D+00-0.145D+00 0.305D+00 0.459D+00 0.555D+00
 Coeff:      0.341D-02-0.176D+00-0.145D+00 0.305D+00 0.459D+00 0.555D+00
 Gap=     0.272 Goal=   None    Shift=    0.000
 Gap=     0.308 Goal=   None    Shift=    0.000
 RMSDP=7.93D-08 MaxDP=8.61D-06 DE=-1.67D-08 OVMax= 3.29D-05

 Cycle  15  Pass 1  IDiag  1:
 RMSU=  6.77D-08    CP:  1.00D+00  1.04D+00  7.31D-01  1.95D+00  1.55D+00
                    CP:  1.04D+00
 E= -596.989081758739     Delta-E=       -0.000000001204 Rises=F Damp=F
 DIIS: error= 4.81D-07 at cycle   7 NSaved=   7.
 NSaved= 7 IEnMin= 7 EnMin= -596.989081758739     IErMin= 7 ErrMin= 4.81D-07
 ErrMax= 4.81D-07  0.00D+00 EMaxC= 1.00D-01 BMatC= 4.29D-10 BMatP= 4.60D-09
 IDIUse=1 WtCom= 1.00D+00 WtEn= 0.00D+00
 Coeff-Com:  0.173D-03 0.177D-02-0.523D-03-0.367D-01-0.127D-01 0.209D+00
 Coeff-Com:  0.839D+00
 Coeff:      0.173D-03 0.177D-02-0.523D-03-0.367D-01-0.127D-01 0.209D+00
 Coeff:      0.839D+00
 Gap=     0.272 Goal=   None    Shift=    0.000
 Gap=     0.308 Goal=   None    Shift=    0.000
 RMSDP=5.81D-08 MaxDP=4.40D-06 DE=-1.20D-09 OVMax= 8.42D-06

 Cycle  16  Pass 1  IDiag  1:
 RMSU=  2.65D-08    CP:  1.00D+00  1.04D+00  7.29D-01  1.98D+00  1.63D+00
                    CP:  1.17D+00  1.03D+00
 E= -596.989081758883     Delta-E=       -0.000000000145 Rises=F Damp=F
 DIIS: error= 7.24D-08 at cycle   8 NSaved=   8.
 NSaved= 8 IEnMin= 8 EnMin= -596.989081758883     IErMin= 8 ErrMin= 7.24D-08
 ErrMax= 7.24D-08  0.00D+00 EMaxC= 1.00D-01 BMatC= 1.99D-11 BMatP= 4.29D-10
 IDIUse=1 WtCom= 1.00D+00 WtEn= 0.00D+00
 Coeff-Com: -0.241D-03 0.151D-01 0.120D-01-0.329D-01-0.435D-01 0.112D-01
 Coeff-Com:  0.195D+00 0.843D+00
 Coeff:     -0.241D-03 0.151D-01 0.120D-01-0.329D-01-0.435D-01 0.112D-01
 Coeff:      0.195D+00 0.843D+00
 Gap=     0.272 Goal=   None    Shift=    0.000
 Gap=     0.308 Goal=   None    Shift=    0.000
 RMSDP=1.60D-08 MaxDP=1.58D-06 DE=-1.45D-10 OVMax= 3.47D-06

 Cycle  17  Pass 1  IDiag  1:
 RMSU=  1.05D-08    CP:  1.00D+00  1.04D+00  7.27D-01  1.98D+00  1.65D+00
                    CP:  1.19D+00  1.08D+00  1.22D+00
 E= -596.989081758898     Delta-E=       -0.000000000015 Rises=F Damp=F
 DIIS: error= 5.62D-08 at cycle   9 NSaved=   9.
 NSaved= 9 IEnMin= 9 EnMin= -596.989081758898     IErMin= 9 ErrMin= 5.62D-08
 ErrMax= 5.62D-08  0.00D+00 EMaxC= 1.00D-01 BMatC= 5.55D-12 BMatP= 1.99D-11
 IDIUse=1 WtCom= 1.00D+00 WtEn= 0.00D+00
 Coeff-Com: -0.906D-04 0.410D-02 0.338D-02-0.412D-02-0.118D-01-0.225D-01
 Coeff-Com: -0.552D-01 0.253D+00 0.834D+00
 Coeff:     -0.906D-04 0.410D-02 0.338D-02-0.412D-02-0.118D-01-0.225D-01
 Coeff:     -0.552D-01 0.253D+00 0.834D+00
 Gap=     0.272 Goal=   None    Shift=    0.000
 Gap=     0.308 Goal=   None    Shift=    0.000
 RMSDP=6.67D-09 MaxDP=3.68D-07 DE=-1.50D-11 OVMax= 2.57D-06

 SCF Done:  E(UM062X) =  -596.989081759     A.U. after   17 cycles
            NFock= 17  Conv=0.67D-08     -V/T= 2.0059
 <Sx>= 0.0000 <Sy>= 0.0000 <Sz>= 0.5000 <S**2>= 0.7563 S= 0.5031
 <L.S>=  0.00000000000    
 KE= 5.934715001278D+02 PE=-3.201024138696D+03 EE= 1.104889582896D+03
 Annihilation of the first spin contaminant:
 S**2 before annihilation     0.7563,   after     0.7500
 Leave Link  502 at Thu Jan  9 07:43:50 2025, MaxMem=  4026531840 cpu:            7320.2 elap:             366.2
 (Enter /usr/local/intel/g16/l601.exe)
 Copying SCF densities to generalized density rwf, IOpCl= 1 IROHF=0.

 **********************************************************************

            Population analysis using the SCF Density.

 **********************************************************************

 Orbital symmetries:
 Alpha Orbitals:
       Occupied  (A) (A) (A) (A) (A) (A) (A) (A) (A) (A) (A) (A)
                 (A) (A) (A) (A) (A) (A) (A) (A) (A) (A) (A) (A)
                 (A) (A) (A) (A) (A) (A) (A) (A) (A) (A) (A) (A)
                 (A) (A) (A) (A) (A) (A) (A) (A) (A) (A) (A) (A)
                 (A) (A) (A)
       Virtual   (A) (A) (A) (A) (A) (A) (A) (A) (A) (A) (A) (A)
                 (A) (A) (A) (A) (A) (A) (A) (A) (A) (A) (A) (A)
                 (A) (A) (A) (A) (A) (A) (A) (A) (A) (A) (A) (A)
                 (A) (A) (A) (A) (A) (A) (A) (A) (A) (A) (A) (A)
                 (A) (A) (A) (A) (A) (A) (A) (A) (A) (A) (A) (A)
                 (A) (A) (A) (A) (A) (A) (A) (A) (A) (A) (A) (A)
                 (A) (A) (A) (A) (A) (A) (A) (A) (A) (A) (A) (A)
                 (A) (A) (A) (A) (A) (A) (A) (A) (A) (A) (A) (A)
                 (A) (A) (A) (A) (A) (A) (A) (A) (A) (A) (A) (A)
                 (A) (A) (A) (A) (A) (A) (A) (A) (A) (A) (A) (A)
                 (A) (A) (A) (A) (A) (A) (A) (A) (A) (A) (A) (A)
                 (A) (A) (A) (A) (A) (A) (A) (A) (A) (A) (A) (A)
                 (A) (A) (A) (A) (A) (A) (A) (A) (A) (A) (A) (A)
                 (A) (A) (A) (A) (A) (A) (A) (A) (A) (A) (A) (A)
                 (A) (A) (A) (A) (A) (A) (A) (A) (A) (A) (A) (A)
                 (A) (A) (A) (A) (A) (A) (A) (A) (A) (A) (A) (A)
                 (A) (A) (A) (A) (A) (A) (A) (A) (A) (A) (A) (A)
                 (A) (A) (A) (A) (A) (A) (A) (A) (A) (A) (A) (A)
                 (A) (A) (A) (A) (A) (A) (A) (A) (A) (A) (A) (A)
                 (A) (A) (A) (A) (A) (A) (A) (A) (A) (A) (A) (A)
                 (A) (A) (A) (A) (A) (A) (A) (A) (A) (A) (A) (A)
                 (A) (A) (A) (A) (A) (A) (A) (A) (A) (A) (A) (A)
                 (A) (A) (A) (A) (A) (A) (A) (A) (A) (A) (A) (A)
                 (A) (A) (A) (A) (A) (A) (A) (A) (A) (A) (A) (A)
                 (A) (A) (A) (A) (A) (A) (A) (A) (A) (A) (A) (A)
                 (A) (A) (A) (A) (A) (A) (A) (A) (A) (A) (A) (A)
                 (A) (A) (A) (A) (A) (A) (A) (A) (A) (A) (A) (A)
                 (A) (A) (A) (A) (A) (A) (A) (A) (A) (A) (A) (A)
                 (A) (A) (A) (A) (A) (A) (A) (A) (A) (A) (A) (A)
                 (A) (A) (A) (A) (A) (A) (A) (A) (A) (A) (A) (A)
                 (A) (A) (A) (A) (A) (A) (A) (A) (A) (A) (A) (A)
                 (A) (A) (A) (A) (A) (A) (A) (A) (A) (A) (A) (A)
                 (A) (A) (A) (A) (A) (A) (A) (A) (A) (A) (A) (A)
                 (A) (A) (A) (A) (A) (A) (A) (A) (A) (A) (A) (A)
                 (A) (A) (A) (A) (A) (A) (A) (A) (A) (A) (A) (A)
                 (A) (A) (A) (A) (A) (A) (A) (A) (A) (A) (A) (A)
                 (A) (A) (A) (A) (A) (A) (A) (A) (A) (A) (A) (A)
                 (A) (A) (A) (A) (A) (A) (A) (A) (A) (A) (A) (A)
                 (A) (A) (A) (A)
 Beta  Orbitals:
       Occupied  (A) (A) (A) (A) (A) (A) (A) (A) (A) (A) (A) (A)
                 (A) (A) (A) (A) (A) (A) (A) (A) (A) (A) (A) (A)
                 (A) (A) (A) (A) (A) (A) (A) (A) (A) (A) (A) (A)
                 (A) (A) (A) (A) (A) (A) (A) (A) (A) (A) (A) (A)
                 (A) (A)
       Virtual   (A) (A) (A) (A) (A) (A) (A) (A) (A) (A) (A) (A)
                 (A) (A) (A) (A) (A) (A) (A) (A) (A) (A) (A) (A)
                 (A) (A) (A) (A) (A) (A) (A) (A) (A) (A) (A) (A)
                 (A) (A) (A) (A) (A) (A) (A) (A) (A) (A) (A) (A)
                 (A) (A) (A) (A) (A) (A) (A) (A) (A) (A) (A) (A)
                 (A) (A) (A) (A) (A) (A) (A) (A) (A) (A) (A) (A)
                 (A) (A) (A) (A) (A) (A) (A) (A) (A) (A) (A) (A)
                 (A) (A) (A) (A) (A) (A) (A) (A) (A) (A) (A) (A)
                 (A) (A) (A) (A) (A) (A) (A) (A) (A) (A) (A) (A)
                 (A) (A) (A) (A) (A) (A) (A) (A) (A) (A) (A) (A)
                 (A) (A) (A) (A) (A) (A) (A) (A) (A) (A) (A) (A)
                 (A) (A) (A) (A) (A) (A) (A) (A) (A) (A) (A) (A)
                 (A) (A) (A) (A) (A) (A) (A) (A) (A) (A) (A) (A)
                 (A) (A) (A) (A) (A) (A) (A) (A) (A) (A) (A) (A)
                 (A) (A) (A) (A) (A) (A) (A) (A) (A) (A) (A) (A)
                 (A) (A) (A) (A) (A) (A) (A) (A) (A) (A) (A) (A)
                 (A) (A) (A) (A) (A) (A) (A) (A) (A) (A) (A) (A)
                 (A) (A) (A) (A) (A) (A) (A) (A) (A) (A) (A) (A)
                 (A) (A) (A) (A) (A) (A) (A) (A) (A) (A) (A) (A)
                 (A) (A) (A) (A) (A) (A) (A) (A) (A) (A) (A) (A)
                 (A) (A) (A) (A) (A) (A) (A) (A) (A) (A) (A) (A)
                 (A) (A) (A) (A) (A) (A) (A) (A) (A) (A) (A) (A)
                 (A) (A) (A) (A) (A) (A) (A) (A) (A) (A) (A) (A)
                 (A) (A) (A) (A) (A) (A) (A) (A) (A) (A) (A) (A)
                 (A) (A) (A) (A) (A) (A) (A) (A) (A) (A) (A) (A)
                 (A) (A) (A) (A) (A) (A) (A) (A) (A) (A) (A) (A)
                 (A) (A) (A) (A) (A) (A) (A) (A) (A) (A) (A) (A)
                 (A) (A) (A) (A) (A) (A) (A) (A) (A) (A) (A) (A)
                 (A) (A) (A) (A) (A) (A) (A) (A) (A) (A) (A) (A)
                 (A) (A) (A) (A) (A) (A) (A) (A) (A) (A) (A) (A)
                 (A) (A) (A) (A) (A) (A) (A) (A) (A) (A) (A) (A)
                 (A) (A) (A) (A) (A) (A) (A) (A) (A) (A) (A) (A)
                 (A) (A) (A) (A) (A) (A) (A) (A) (A) (A) (A) (A)
                 (A) (A) (A) (A) (A) (A) (A) (A) (A) (A) (A) (A)
                 (A) (A) (A) (A) (A) (A) (A) (A) (A) (A) (A) (A)
                 (A) (A) (A) (A) (A) (A) (A) (A) (A) (A) (A) (A)
                 (A) (A) (A) (A) (A) (A) (A) (A) (A) (A) (A) (A)
                 (A) (A) (A) (A) (A) (A) (A) (A) (A) (A) (A) (A)
                 (A) (A) (A) (A) (A)
 The electronic state is 2-A.
 Alpha  occ. eigenvalues --  -19.62998 -19.62745 -14.84073 -10.64063 -10.60907
 Alpha  occ. eigenvalues --  -10.60761 -10.56268 -10.55921 -10.55759 -10.54635
 Alpha  occ. eigenvalues --  -10.53305 -10.53283 -10.53247  -1.19834  -1.15726
 Alpha  occ. eigenvalues --   -0.97626  -0.93623  -0.88770  -0.82946  -0.81922
 Alpha  occ. eigenvalues --   -0.79607  -0.78796  -0.74949  -0.69239  -0.63373
 Alpha  occ. eigenvalues --   -0.60746  -0.58798  -0.57182  -0.55863  -0.54827
 Alpha  occ. eigenvalues --   -0.52594  -0.52288  -0.51736  -0.49591  -0.48556
 Alpha  occ. eigenvalues --   -0.47665  -0.47399  -0.46774  -0.45839  -0.44686
 Alpha  occ. eigenvalues --   -0.44585  -0.44240  -0.43911  -0.42419  -0.41241
 Alpha  occ. eigenvalues --   -0.40685  -0.40140  -0.39204  -0.34290  -0.32882
 Alpha  occ. eigenvalues --   -0.27095
 Alpha virt. eigenvalues --    0.00124   0.05233   0.07234   0.07536   0.08427
 Alpha virt. eigenvalues --    0.09009   0.10865   0.11338   0.11706   0.12376
 Alpha virt. eigenvalues --    0.13586   0.13674   0.14460   0.14783   0.15553
 Alpha virt. eigenvalues --    0.15930   0.16909   0.17260   0.18483   0.18524
 Alpha virt. eigenvalues --    0.18713   0.19241   0.19636   0.19861   0.20316
 Alpha virt. eigenvalues --    0.21007   0.21956   0.23148   0.23976   0.24808
 Alpha virt. eigenvalues --    0.25468   0.25942   0.26272   0.27331   0.28591
 Alpha virt. eigenvalues --    0.29108   0.30951   0.32266   0.33412   0.33867
 Alpha virt. eigenvalues --    0.34820   0.35136   0.36206   0.36291   0.37720
 Alpha virt. eigenvalues --    0.38804   0.39056   0.40490   0.40649   0.41111
 Alpha virt. eigenvalues --    0.41830   0.41956   0.42883   0.43677   0.44059
 Alpha virt. eigenvalues --    0.44634   0.45269   0.45736   0.45827   0.46285
 Alpha virt. eigenvalues --    0.46854   0.47371   0.47874   0.48161   0.48674
 Alpha virt. eigenvalues --    0.49248   0.49779   0.50241   0.50588   0.50933
 Alpha virt. eigenvalues --    0.51699   0.52052   0.53385   0.53570   0.54043
 Alpha virt. eigenvalues --    0.54898   0.55370   0.56852   0.57125   0.58158
 Alpha virt. eigenvalues --    0.58695   0.59790   0.62223   0.62973   0.64188
 Alpha virt. eigenvalues --    0.65110   0.65572   0.67253   0.68891   0.69175
 Alpha virt. eigenvalues --    0.70454   0.71776   0.72958   0.74511   0.75947
 Alpha virt. eigenvalues --    0.77912   0.79435   0.80222   0.81061   0.82531
 Alpha virt. eigenvalues --    0.82761   0.84509   0.86173   0.86735   0.87946
 Alpha virt. eigenvalues --    0.88976   0.90561   0.91290   0.92635   0.93207
 Alpha virt. eigenvalues --    0.95210   0.95540   0.96227   0.98582   0.99333
 Alpha virt. eigenvalues --    1.00479   1.02160   1.03008   1.04019   1.04771
 Alpha virt. eigenvalues --    1.06862   1.07868   1.08801   1.09343   1.09973
 Alpha virt. eigenvalues --    1.11307   1.13167   1.13245   1.13981   1.15394
 Alpha virt. eigenvalues --    1.17649   1.18354   1.19438   1.21307   1.21798
 Alpha virt. eigenvalues --    1.22720   1.23660   1.24775   1.25016   1.26899
 Alpha virt. eigenvalues --    1.30178   1.30989   1.32339   1.34479   1.35532
 Alpha virt. eigenvalues --    1.37587   1.38323   1.39074   1.40167   1.43143
 Alpha virt. eigenvalues --    1.44961   1.46389   1.48196   1.49786   1.52790
 Alpha virt. eigenvalues --    1.53362   1.54239   1.56085   1.57129   1.58270
 Alpha virt. eigenvalues --    1.58711   1.59904   1.60704   1.61999   1.62227
 Alpha virt. eigenvalues --    1.62826   1.63635   1.63802   1.64546   1.65390
 Alpha virt. eigenvalues --    1.66047   1.66574   1.67406   1.68140   1.68328
 Alpha virt. eigenvalues --    1.69306   1.70064   1.71228   1.72148   1.73258
 Alpha virt. eigenvalues --    1.75185   1.76316   1.78086   1.79289   1.80523
 Alpha virt. eigenvalues --    1.80936   1.83648   1.84841   1.85786   1.87895
 Alpha virt. eigenvalues --    1.89015   1.92935   1.93754   1.95036   1.95715
 Alpha virt. eigenvalues --    1.96583   1.97558   1.98900   2.01140   2.01760
 Alpha virt. eigenvalues --    2.03036   2.03666   2.06803   2.08556   2.09349
 Alpha virt. eigenvalues --    2.12059   2.13256   2.13692   2.14868   2.15828
 Alpha virt. eigenvalues --    2.17260   2.18235   2.18949   2.19875   2.20486
 Alpha virt. eigenvalues --    2.21707   2.22914   2.25639   2.25840   2.27763
 Alpha virt. eigenvalues --    2.28860   2.30030   2.31460   2.31994   2.32316
 Alpha virt. eigenvalues --    2.33552   2.34300   2.34697   2.37063   2.37711
 Alpha virt. eigenvalues --    2.38506   2.39572   2.40325   2.41511   2.41892
 Alpha virt. eigenvalues --    2.42765   2.43420   2.44843   2.45970   2.46951
 Alpha virt. eigenvalues --    2.48997   2.49577   2.50143   2.51555   2.53105
 Alpha virt. eigenvalues --    2.53648   2.55033   2.56586   2.57500   2.58014
 Alpha virt. eigenvalues --    2.59049   2.60143   2.60802   2.61865   2.61991
 Alpha virt. eigenvalues --    2.62565   2.63583   2.64929   2.65228   2.66659
 Alpha virt. eigenvalues --    2.68117   2.68585   2.69891   2.70887   2.71613
 Alpha virt. eigenvalues --    2.72637   2.73518   2.73690   2.75502   2.75946
 Alpha virt. eigenvalues --    2.76862   2.78201   2.78704   2.79651   2.80642
 Alpha virt. eigenvalues --    2.83048   2.83851   2.84592   2.86466   2.88809
 Alpha virt. eigenvalues --    2.90610   2.91883   2.92706   2.93861   2.96640
 Alpha virt. eigenvalues --    2.99171   3.01147   3.01863   3.02673   3.04314
 Alpha virt. eigenvalues --    3.05735   3.08849   3.10684   3.11401   3.13151
 Alpha virt. eigenvalues --    3.14652   3.15753   3.16141   3.16831   3.17679
 Alpha virt. eigenvalues --    3.18837   3.19022   3.20478   3.22406   3.22618
 Alpha virt. eigenvalues --    3.23453   3.24297   3.25218   3.26380   3.27394
 Alpha virt. eigenvalues --    3.28521   3.29331   3.29541   3.30454   3.30972
 Alpha virt. eigenvalues --    3.33761   3.34638   3.35197   3.35274   3.36391
 Alpha virt. eigenvalues --    3.37078   3.37812   3.38561   3.39590   3.40100
 Alpha virt. eigenvalues --    3.40670   3.42617   3.43089   3.44441   3.45539
 Alpha virt. eigenvalues --    3.46697   3.47777   3.48442   3.50051   3.51608
 Alpha virt. eigenvalues --    3.51809   3.52890   3.53834   3.54969   3.59105
 Alpha virt. eigenvalues --    3.59790   3.60625   3.61671   3.63688   3.65260
 Alpha virt. eigenvalues --    3.67067   3.67326   3.68990   3.70691   3.74513
 Alpha virt. eigenvalues --    3.74750   3.76360   3.77867   3.80659   3.81577
 Alpha virt. eigenvalues --    3.85871   3.86187   3.87559   3.88838   3.91662
 Alpha virt. eigenvalues --    3.95767   3.96832   3.97343   3.97900   4.01246
 Alpha virt. eigenvalues --    4.01787   4.02361   4.04796   4.05379   4.06390
 Alpha virt. eigenvalues --    4.08303   4.11321   4.11630   4.14159   4.14565
 Alpha virt. eigenvalues --    4.19071   4.19206   4.21471   4.22221   4.26489
 Alpha virt. eigenvalues --    4.28297   4.28595   4.30128   4.31822   4.34373
 Alpha virt. eigenvalues --    4.35446   4.37414   4.38514   4.38887   4.41842
 Alpha virt. eigenvalues --    4.42306   4.43964   4.44880   4.45437   4.46784
 Alpha virt. eigenvalues --    4.48330   4.49817   4.52528   4.54908   4.60563
 Alpha virt. eigenvalues --    4.63323   4.65871   4.69568   4.70906   4.73814
 Alpha virt. eigenvalues --    4.77595   4.80738   4.83785   4.84573   4.87108
 Alpha virt. eigenvalues --    4.89227   4.92727   4.94345   5.03285   5.03667
 Alpha virt. eigenvalues --    5.07723   5.11968   5.15581   5.22194   5.22449
 Alpha virt. eigenvalues --    5.24789   5.25662   5.30063   5.44233   5.48236
 Alpha virt. eigenvalues --    5.50380   5.55837   5.59875   5.64846   5.74929
 Alpha virt. eigenvalues --    5.80653   6.06249   6.09476   6.23212   6.30102
 Alpha virt. eigenvalues --    6.38491   6.40786   6.40946   6.44470   6.54948
 Alpha virt. eigenvalues --    6.80463   6.82294   6.94974   6.98892   7.01600
 Alpha virt. eigenvalues --    7.03511   7.63132  22.49425  22.51081  22.52142
 Alpha virt. eigenvalues --   22.54626  22.60237  22.65612  22.70094  22.76657
 Alpha virt. eigenvalues --   22.83217  23.14357  32.99778  44.05913  44.13503
  Beta  occ. eigenvalues --  -19.62746 -19.61896 -14.83252 -10.64063 -10.60948
  Beta  occ. eigenvalues --  -10.60800 -10.56244 -10.55920 -10.55759 -10.54598
  Beta  occ. eigenvalues --  -10.53287 -10.53281 -10.53218  -1.16727  -1.15713
  Beta  occ. eigenvalues --   -0.96388  -0.93464  -0.88184  -0.82244  -0.80830
  Beta  occ. eigenvalues --   -0.79463  -0.78645  -0.74763  -0.68821  -0.63175
  Beta  occ. eigenvalues --   -0.59946  -0.58621  -0.56713  -0.54818  -0.53551
  Beta  occ. eigenvalues --   -0.52074  -0.51682  -0.51027  -0.49420  -0.47601
  Beta  occ. eigenvalues --   -0.47487  -0.46974  -0.46575  -0.45337  -0.44583
  Beta  occ. eigenvalues --   -0.44208  -0.43638  -0.42833  -0.42294  -0.40578
  Beta  occ. eigenvalues --   -0.39982  -0.39132  -0.36630  -0.33005  -0.32365
  Beta virt. eigenvalues --   -0.01532   0.00198   0.05249   0.07296   0.07566
  Beta virt. eigenvalues --    0.08588   0.09134   0.10917   0.11391   0.11737
  Beta virt. eigenvalues --    0.12474   0.13606   0.13741   0.14570   0.14847
  Beta virt. eigenvalues --    0.15588   0.15949   0.16908   0.17324   0.18567
  Beta virt. eigenvalues --    0.18621   0.18878   0.19346   0.19840   0.19932
  Beta virt. eigenvalues --    0.20420   0.21094   0.21992   0.23316   0.24140
  Beta virt. eigenvalues --    0.24947   0.25526   0.26427   0.26671   0.27410
  Beta virt. eigenvalues --    0.28705   0.29157   0.31071   0.32648   0.33438
  Beta virt. eigenvalues --    0.34068   0.34912   0.35285   0.36217   0.36464
  Beta virt. eigenvalues --    0.37864   0.38904   0.39173   0.40610   0.40714
  Beta virt. eigenvalues --    0.41195   0.41815   0.42154   0.42965   0.43752
  Beta virt. eigenvalues --    0.44148   0.44666   0.45329   0.45751   0.45876
  Beta virt. eigenvalues --    0.46347   0.46886   0.47420   0.47879   0.48257
  Beta virt. eigenvalues --    0.48703   0.49328   0.49844   0.50256   0.50651
  Beta virt. eigenvalues --    0.50967   0.51769   0.52165   0.53527   0.53658
  Beta virt. eigenvalues --    0.54168   0.54933   0.55457   0.57094   0.57223
  Beta virt. eigenvalues --    0.58336   0.58810   0.59919   0.62435   0.63183
  Beta virt. eigenvalues --    0.64323   0.65604   0.65655   0.67371   0.69018
  Beta virt. eigenvalues --    0.69563   0.70675   0.71921   0.72988   0.74568
  Beta virt. eigenvalues --    0.75979   0.77995   0.79607   0.80346   0.81163
  Beta virt. eigenvalues --    0.82610   0.82867   0.84772   0.86355   0.86818
  Beta virt. eigenvalues --    0.87992   0.89019   0.90589   0.91348   0.92724
  Beta virt. eigenvalues --    0.93250   0.95272   0.95620   0.96343   0.98627
  Beta virt. eigenvalues --    0.99453   1.00714   1.02255   1.03077   1.04084
  Beta virt. eigenvalues --    1.05035   1.06941   1.08034   1.08813   1.09416
  Beta virt. eigenvalues --    1.10060   1.11578   1.13227   1.13393   1.14118
  Beta virt. eigenvalues --    1.15500   1.17740   1.18432   1.19609   1.21375
  Beta virt. eigenvalues --    1.22046   1.22881   1.23758   1.24945   1.25149
  Beta virt. eigenvalues --    1.26977   1.30221   1.31093   1.32457   1.34655
  Beta virt. eigenvalues --    1.35629   1.37689   1.38458   1.39081   1.40258
  Beta virt. eigenvalues --    1.43230   1.45060   1.46659   1.48326   1.50048
  Beta virt. eigenvalues --    1.52908   1.53502   1.54743   1.56288   1.57178
  Beta virt. eigenvalues --    1.58447   1.58824   1.60062   1.60793   1.62138
  Beta virt. eigenvalues --    1.62370   1.62889   1.63691   1.63846   1.64645
  Beta virt. eigenvalues --    1.65484   1.66123   1.66651   1.67451   1.68207
  Beta virt. eigenvalues --    1.68382   1.69413   1.70128   1.71303   1.72383
  Beta virt. eigenvalues --    1.73461   1.75264   1.76338   1.78364   1.79516
  Beta virt. eigenvalues --    1.80945   1.81168   1.83684   1.84920   1.85866
  Beta virt. eigenvalues --    1.88042   1.89422   1.93152   1.93912   1.95223
  Beta virt. eigenvalues --    1.95759   1.96733   1.97780   1.99193   2.01162
  Beta virt. eigenvalues --    2.02043   2.03117   2.03730   2.06930   2.08640
  Beta virt. eigenvalues --    2.09444   2.12360   2.13400   2.13776   2.14936
  Beta virt. eigenvalues --    2.16091   2.17425   2.18327   2.19049   2.20008
  Beta virt. eigenvalues --    2.20824   2.21874   2.23028   2.25801   2.25870
  Beta virt. eigenvalues --    2.27866   2.28920   2.30102   2.31498   2.32195
  Beta virt. eigenvalues --    2.32336   2.33627   2.34322   2.34726   2.37084
  Beta virt. eigenvalues --    2.37764   2.38614   2.39742   2.40352   2.41671
  Beta virt. eigenvalues --    2.42026   2.42790   2.43474   2.44985   2.46043
  Beta virt. eigenvalues --    2.47029   2.49091   2.49885   2.50288   2.51643
  Beta virt. eigenvalues --    2.53163   2.53758   2.55171   2.56622   2.57583
  Beta virt. eigenvalues --    2.58342   2.59144   2.60177   2.60899   2.61924
  Beta virt. eigenvalues --    2.62159   2.62654   2.63910   2.65051   2.65909
  Beta virt. eigenvalues --    2.66830   2.68305   2.68648   2.70007   2.71050
  Beta virt. eigenvalues --    2.71735   2.72847   2.73642   2.73811   2.75644
  Beta virt. eigenvalues --    2.76646   2.77196   2.78356   2.78798   2.79966
  Beta virt. eigenvalues --    2.81092   2.83185   2.84110   2.84840   2.86544
  Beta virt. eigenvalues --    2.89528   2.90743   2.92366   2.93060   2.94466
  Beta virt. eigenvalues --    2.97277   2.99230   3.01250   3.01920   3.02890
  Beta virt. eigenvalues --    3.04431   3.05864   3.09022   3.10844   3.11444
  Beta virt. eigenvalues --    3.13211   3.14791   3.15813   3.16223   3.16976
  Beta virt. eigenvalues --    3.17779   3.18960   3.19119   3.20553   3.22526
  Beta virt. eigenvalues --    3.22860   3.23538   3.24427   3.25309   3.26506
  Beta virt. eigenvalues --    3.27440   3.28614   3.29431   3.29623   3.30511
  Beta virt. eigenvalues --    3.31065   3.33786   3.34700   3.35255   3.35359
  Beta virt. eigenvalues --    3.36475   3.37102   3.37869   3.38623   3.39635
  Beta virt. eigenvalues --    3.40183   3.40730   3.42630   3.43165   3.44460
  Beta virt. eigenvalues --    3.45606   3.46747   3.47835   3.48514   3.50043
  Beta virt. eigenvalues --    3.51604   3.51949   3.52890   3.53919   3.55013
  Beta virt. eigenvalues --    3.59113   3.59795   3.60671   3.61762   3.63783
  Beta virt. eigenvalues --    3.65292   3.67096   3.67425   3.69024   3.70731
  Beta virt. eigenvalues --    3.74549   3.74793   3.76468   3.77891   3.80667
  Beta virt. eigenvalues --    3.81585   3.85952   3.86378   3.87713   3.88853
  Beta virt. eigenvalues --    3.91825   3.95905   3.96888   3.97398   3.98016
  Beta virt. eigenvalues --    4.01288   4.01887   4.02399   4.04994   4.05447
  Beta virt. eigenvalues --    4.06399   4.08309   4.11378   4.11674   4.14137
  Beta virt. eigenvalues --    4.14599   4.19034   4.19200   4.21494   4.22331
  Beta virt. eigenvalues --    4.26553   4.28322   4.28737   4.30397   4.31927
  Beta virt. eigenvalues --    4.34642   4.35528   4.37484   4.38584   4.39310
  Beta virt. eigenvalues --    4.42030   4.42434   4.43957   4.44965   4.45529
  Beta virt. eigenvalues --    4.46956   4.48466   4.49886   4.52521   4.54948
  Beta virt. eigenvalues --    4.60640   4.63400   4.65857   4.70597   4.71799
  Beta virt. eigenvalues --    4.74204   4.77900   4.81093   4.83631   4.84831
  Beta virt. eigenvalues --    4.87261   4.89718   4.93267   4.95154   5.02958
  Beta virt. eigenvalues --    5.03860   5.07976   5.13934   5.17807   5.22213
  Beta virt. eigenvalues --    5.22553   5.26855   5.27587   5.31783   5.44920
  Beta virt. eigenvalues --    5.48912   5.52223   5.55819   5.59063   5.64850
  Beta virt. eigenvalues --    5.75296   5.81414   6.06271   6.11947   6.23219
  Beta virt. eigenvalues --    6.29896   6.40687   6.40928   6.45545   6.50283
  Beta virt. eigenvalues --    6.54955   6.81936   6.85015   6.97839   6.98985
  Beta virt. eigenvalues --    7.01323   7.03511   7.63037  22.49443  22.51088
  Beta virt. eigenvalues --   22.52166  22.54641  22.60235  22.65623  22.70100
  Beta virt. eigenvalues --   22.76578  22.83134  23.14359  32.99895  44.05916
  Beta virt. eigenvalues --   44.13585
          Condensed to atoms (all electrons):
               1          2          3          4          5          6
     1  O    8.314205   0.148627  -0.025703  -0.001156  -0.033997  -0.015721
     2  N    0.148627   6.660302   0.181435  -0.053742   0.158130  -0.056080
     3  C   -0.025703   0.181435   5.440469   0.041489  -0.065648   0.297890
     4  C   -0.001156  -0.053742   0.041489   5.582668   0.186230  -0.003984
     5  C   -0.033997   0.158130  -0.065648   0.186230   5.479694  -0.015181
     6  C   -0.015721  -0.056080   0.297890  -0.003984  -0.015181   5.202459
     7  C   -0.023069  -0.055409   0.265449   0.005521  -0.005314  -0.111514
     8  C   -0.013061  -0.062052   0.005923  -0.113138   0.280085   0.000925
     9  C   -0.005619  -0.051713  -0.002587  -0.089659   0.243166   0.000237
    10  H   -0.000392   0.007871  -0.001845   0.420199  -0.038108   0.000235
    11  H    0.001173  -0.000619  -0.001402   0.421906  -0.044901  -0.001621
    12  H    0.000284   0.009295  -0.044234  -0.000534   0.000466   0.423224
    13  H   -0.000797  -0.004840  -0.005798   0.002207  -0.001388   0.386324
    14  H    0.009454  -0.010145  -0.027434  -0.000658   0.001848   0.408794
    15  H    0.001409   0.009273  -0.030487   0.000049   0.000415  -0.013891
    16  H    0.010373  -0.010535  -0.028547  -0.000209   0.001131  -0.010026
    17  H   -0.001495  -0.003520  -0.012900   0.000089  -0.001349   0.013784
    18  H    0.004108  -0.009052  -0.000714   0.015187  -0.023120  -0.000060
    19  H   -0.000434  -0.005944  -0.001099  -0.008264  -0.030425   0.000186
    20  H    0.003191   0.009581   0.000707  -0.027712  -0.022044   0.000050
    21  H   -0.000333   0.009220  -0.000018   0.002153  -0.042239   0.000061
    22  H    0.000050  -0.004644  -0.000194  -0.016800  -0.032033  -0.000280
    23  H    0.003450  -0.004186  -0.000834   0.012947  -0.028624  -0.000072
    24  C    0.007435  -0.051468   0.130321   0.018047   0.026237  -0.104009
    25  C    0.000795   0.000544  -0.011290  -0.034879   0.037753   0.009213
    26  C    0.000403   0.000825  -0.000217   0.083311  -0.047039   0.004903
[...]
 -0.00191399,-0.00070380,-0.00002575,-0.00136399,-0.00010312,-0.0001969
 9,-0.00010677,0.00091331,0.00195714,0.00158680,0.00003464,-0.00023169,
 0.00002829,0.00000846,0.00012298,-0.00006812,0.00004238,-0.00000569,-0
 .00007843,-0.00005869,0.00003071,-0.00004948,0.00038414,-0.00006900,-0
 .00008779,-0.00005696,0.00012916,-0.00043998,0.00002273,-0.00006461,-0
 .00001756,0.00954665,-0.03225438,-0.11538333,0.34509634,0.09536504,0.5
 8989747,0.00047505,-0.00025300,0.00015337,0.00042767,0.00043138,-0.000
 09722,-0.00101629,0.00111533,0.00213065,-0.15633923,-0.01114273,0.0405
 4499,-0.01424070,-0.00314796,0.00434284,0.00038482,-0.00001035,-0.0005
 8415,0.00055147,0.00023470,-0.00063373,-0.00073370,-0.00296517,-0.0017
 9852,0.00071118,-0.00019383,0.00010367,-0.02406495,-0.00734318,0.01338
 195,0.00050821,0.00025475,0.00067223,-0.00003137,-0.00010404,0.0000193
 7,-0.00022306,-0.00008233,0.00030990,-0.00001965,0.00019502,0.00007179
 ,-0.00009240,-0.00001658,0.00000449,-0.00003324,0.00019854,0.00019032,
 0.00001455,0.00002089,0.00009398,-0.00045817,0.00000427,0.00065348,0.0
 0013612,0.00020606,0.00019275,0.00055181,-0.00020233,0.00005137,0.0001
 4834,0.00008851,0.00002047,-0.00059393,-0.00003088,-0.00037679,0.00005
 681,0.00005026,0.00043922,0.01402863,0.00209011,-0.00613153,-0.1128174
 3,0.04675330,0.00140731,0.44956495,-0.00016103,0.00000377,0.00031525,-
 0.00015391,0.00152264,0.00038889,0.00114173,0.00052512,0.00014027,-0.0
 2855116,-0.08425458,0.01051285,-0.02270335,-0.00441367,0.01265845,-0.0
 0009337,-0.00017747,-0.00020233,-0.00013682,-0.00017192,-0.00005023,-0
 .00087922,-0.00352628,-0.00181307,0.00085475,0.00020926,0.00059607,0.0
 2171032,0.00670187,-0.01222895,-0.00365805,-0.00114811,0.00161129,-0.0
 0009922,0.00012132,-0.00002170,0.00003135,-0.00001488,0.00017722,0.000
 02652,0.00004966,0.00013856,-0.00006182,0.00018648,0.00009216,-0.00011
 052,-0.00001546,0.00000381,0.00003526,0.00001668,0.00000947,-0.0013322
 4,0.00052331,0.00047556,0.00010986,-0.00014326,0.00006465,-0.00053155,
 0.00053242,-0.00019731,-0.00017434,0.00013908,-0.00024204,-0.00048261,
 -0.00005572,-0.00011730,-0.00005782,0.00013722,0.00045548,0.02392798,-
 0.01602026,-0.00353008,0.05408662,-0.17090002,0.00187573,0.02112030,0.
 55919500,-0.00022064,-0.00029159,0.00024112,0.00022383,0.00046732,-0.0
 0033065,0.00089193,-0.00160357,-0.00295314,0.04559012,0.00240937,-0.09
 705818,-0.01034993,0.00164938,0.00708371,0.00005346,0.00011294,-0.0000
 1789,-0.00067850,-0.00064086,0.00074195,-0.00135003,-0.00231173,-0.001
 02218,-0.00085031,0.00002633,0.00115854,-0.00067018,-0.00011113,0.0002
 2405,0.03059279,0.00688509,-0.01331345,-0.00003279,0.00001208,0.000001
 70,0.00002946,0.00009821,-0.00006002,-0.00003103,-0.00004979,0.0000233
 8,0.00000427,0.00008659,0.00005538,-0.00017011,-0.00025003,-0.00027684
 ,-0.00006295,-0.00001739,-0.00008596,-0.00088765,-0.00024059,0.0008311
 1,-0.00023026,-0.00015330,0.00040962,0.00005675,-0.00008708,-0.0000759
 8,-0.00021484,0.00005461,0.00004194,0.00002560,-0.00045348,-0.00008889
 ,0.00017220,0.00010436,-0.00032751,0.00415511,-0.01705513,0.01272026,-
 0.00075475,0.00627048,-0.08660397,0.05706305,0.04515377,0.57467675,-0.
 00021005,-0.00085661,0.00064075,0.00006763,-0.00008990,-0.00032040,0.0
 0261100,0.00371750,-0.00188565,0.00380859,0.00239413,-0.00317468,-0.00
 027783,0.00127612,0.00043030,-0.00024175,-0.00027952,-0.00001998,-0.00
 055883,-0.00064106,0.00076554,-0.00015043,-0.00059146,-0.00024122,0.00
 012173,-0.00032061,-0.00021252,-0.00121089,-0.00056973,0.00088822,-0.0
 0006511,-0.00044787,0.00101599,-0.00003822,-0.00037441,-0.00010365,-0.
 00057953,-0.00042102,0.00056978,0.00016351,0.00010087,0.00046646,0.000
 03553,0.00007428,-0.00004001,-0.00021317,-0.00036850,-0.00006824,0.000
 17510,0.00016427,0.00023297,-0.00021636,-0.00010278,0.00006047,0.00001
 552,0.00004773,0.00002994,0.00014172,-0.00004086,-0.00000450,0.0001235
 2,0.00003916,0.00014912,-0.00003312,0.00014858,0.00032018,-0.00020269,
 -0.00014709,0.00000693,-0.00619989,-0.01345149,-0.02765084,-0.46657756
 ,-0.03309445,-0.34723020,-0.03373210,0.01041539,-0.04087088,0.50524933
 ,-0.00138366,0.00070164,0.00032572,0.00035457,-0.00064422,0.00008145,0
 .00194940,0.00166249,-0.00122339,0.00137790,-0.00361444,0.00340782,0.0
 0053789,-0.00226415,-0.00054193,-0.00112582,-0.00037223,0.00147020,-0.
 00073277,-0.00045023,0.00057255,0.00025342,0.00079009,0.00028572,0.000
 15913,0.00080696,-0.00025096,0.00137355,0.00034410,-0.00085295,-0.0002
 8482,-0.00001925,-0.00029659,0.00007721,0.00041773,0.00000575,-0.00007
 693,-0.00144288,-0.00065931,-0.00025148,-0.00044803,-0.00031738,0.0000
 0528,0.00021500,0.00003847,0.00000526,-0.00045664,-0.00002276,0.000179
 23,0.00008349,0.00003107,0.00029561,0.00008304,-0.00004873,-0.00005766
 ,-0.00011563,0.00005484,-0.00023301,0.00011490,-0.00001949,-0.00042297
 ,0.00008130,-0.00004803,0.00010275,-0.00042313,0.00026205,0.00015177,0
 .00009437,0.00013870,-0.02840842,0.00624542,-0.03422784,-0.03370447,-0
 .10803907,-0.05008671,0.02750184,0.01477849,0.01792590,0.03390829,0.09
 276775,-0.00084985,-0.00041501,0.00089208,0.00079920,-0.00042439,0.000
 05383,0.00225040,0.00178737,-0.01022080,0.00083450,0.00586519,-0.00417
 056,-0.00024914,0.00019789,0.00029277,-0.00018782,-0.00021663,-0.00170
 805,-0.00184325,-0.00219132,0.00273718,-0.00013890,-0.00034554,-0.0002
 5686,0.00020080,0.00019656,-0.00017100,-0.00181499,-0.00086962,0.00152
 813,-0.00132012,-0.00022998,0.00092335,-0.00005833,0.00000631,0.000149
 25,-0.00027148,-0.00001873,0.00151248,0.00032380,0.00037264,0.00104084
 ,0.00010585,0.00017114,-0.00007728,-0.00030302,-0.00109533,-0.00060599
 ,0.00025722,0.00026143,0.00036474,-0.00011283,-0.00008064,0.00007878,-
 0.00003633,0.00001323,0.00006699,0.00008880,-0.00003141,0.00001494,-0.
 00011418,0.00005060,0.00012426,0.00007082,-0.00010652,0.00030873,-0.00
 005987,-0.00004523,0.00003603,-0.03589119,-0.02394221,-0.01616215,-0.3
 4951915,-0.04808389,-0.38364945,-0.03167919,0.00387493,0.00285472,0.41
 836977,0.06454341,0.40490287,-0.00149225,-0.00021162,0.00080339,0.0005
 1694,-0.00338825,0.00039246,-0.02022399,0.00831982,0.00394953,-0.00002
 935,-0.00010001,-0.00007326,0.00037229,-0.00032391,-0.00007228,0.00090
 952,0.00190083,-0.00145029,0.00021355,0.00098769,-0.00013188,0.0000143
 6,0.00006655,-0.00000259,0.00010888,0.00015893,-0.00027320,0.00001183,
 0.00004557,0.00000993,-0.00001090,-0.00000065,0.00001417,0.00085400,-0
 .00040185,0.00019313,-0.00005804,-0.00008316,0.00011443,0.00024883,-0.
 00007668,-0.00051234,0.00022306,-0.00069692,-0.00035737,0.00038696,-0.
 00013019,0.00005473,0.00002166,-0.00004181,0.00014596,0.00001779,-0.00
 001213,0.00000949,-0.00000875,-0.00001408,0.00000689,-0.00002024,0.000
 02096,-0.00000281,-0.00013832,-0.00001401,-0.00000754,-0.00022385,-0.0
 0000359,0.00021045,-0.00008950,0.00000419,0.00003053,-0.26423448,0.109
 44710,0.02237851,0.00270858,-0.00196391,-0.00186320,0.00032446,-0.0007
 5594,-0.00010218,0.00119680,-0.00127581,0.00027192,0.28611535,-0.00202
 354,-0.00007269,0.00107123,-0.00103731,-0.00347939,0.00133511,-0.02011
 070,0.00832637,0.00314906,-0.00062686,0.00049015,0.00010037,0.00011169
 ,-0.00043760,0.00001505,-0.00114475,0.00050937,0.00046855,-0.00011337,
 0.00063550,0.00002802,0.00002310,0.00012363,-0.00001808,-0.00007394,0.
 00010556,0.00011217,-0.00001593,0.00006840,0.00008116,0.00007097,-0.00
 000283,-0.00003658,-0.00012277,-0.00045972,0.00048275,0.00026005,0.000
 01328,0.00002034,-0.00009222,0.00022245,-0.00008417,-0.00021530,-0.000
 50771,-0.00014908,0.00016025,0.00018537,0.00007448,0.00000610,-0.00007
 703,0.00002677,0.00005091,-0.00000292,0.00000920,0.00000418,-0.0000250
 9,-0.00000838,-0.00002706,0.00002214,0.00000199,-0.00001777,0.00001748
 ,-0.00006152,0.00003199,-0.00003103,-0.00009912,0.00004569,0.00001233,
 0.00000931,0.10963861,-0.09396738,-0.01344861,0.02821933,-0.01730490,-
 0.00351780,-0.00279653,-0.00421788,-0.00266266,-0.00149245,0.00339732,
 0.00336850,-0.11475241,0.11068161,0.00148582,0.00016382,-0.00046156,0.
 00083611,0.00286312,-0.00099229,0.01451386,-0.00543985,-0.00331989,-0.
 00040281,0.00018063,0.00006311,-0.00020341,0.00008687,-0.00048624,0.00
 142196,-0.00022298,-0.00039639,-0.00072184,-0.00026685,-0.00000405,0.0
 0006022,-0.00000124,0.00015267,0.00005419,0.00021943,-0.00080369,-0.00
 002192,-0.00003616,0.00000889,0.00005429,0.00003605,0.00002674,0.00010
 551,0.00083433,-0.00033052,-0.00000923,-0.00015410,-0.00009628,-0.0001
 9426,-0.00014232,0.00006911,-0.00016688,-0.00019806,0.00032269,-0.0000
 3993,-0.00003750,-0.00018885,-0.00011257,0.00002246,0.00002535,0.00000
 775,0.00002210,-0.00002644,-0.00003891,0.00001441,0.00004729,0.0000261
 6,-0.00002400,-0.00001373,-0.00031333,-0.00003190,0.00017053,-0.000464
 35,-0.00004712,0.00053391,-0.00017945,0.00002560,0.00007988,0.01872050
 ,-0.01146336,-0.05034516,0.01853566,-0.00798609,-0.00168015,-0.0015098
 2,-0.00204663,-0.00083870,-0.00110630,0.00137041,0.00087880,-0.0248471
 2,0.01066374,0.05253085,-0.00017538,0.00001686,-0.00017143,0.00075258,
 0.00025944,-0.00023261,0.00704458,-0.00558052,0.01934733,0.00013925,0.
 00007673,0.00012814,0.00045905,-0.00000695,0.00038645,-0.00207426,-0.0
 0213310,0.00090059,0.00096376,0.00063657,0.00073541,-0.00014475,0.0000
 2468,-0.00023349,-0.00174636,0.00045294,-0.00040454,-0.00000269,0.0000
 0197,-0.00001367,-0.00005296,-0.00006405,-0.00002653,0.00030830,-0.000
 32731,0.00004354,-0.00014777,0.00006829,-0.00008530,0.00068021,-0.0005
 7202,0.00065079,-0.00010680,0.00011793,-0.00021054,-0.00001834,0.00025
 978,0.00012788,-0.00014377,-0.00013257,-0.00029803,-0.00000843,0.00000
 662,0.00001726,0.00007944,-0.00000248,-0.00005923,-0.00001176,0.000004
 40,0.00000314,-0.00006158,-0.00007186,-0.00008223,-0.00510164,0.001577
 88,-0.00071536,0.00000983,-0.00004209,-0.00009241,-0.07836900,0.025009
 02,-0.08615156,-0.00394512,0.00029329,-0.00282963,-0.00018854,0.000479
 43,0.00020238,0.00134416,-0.00216680,-0.00120483,-0.00781396,0.0051126
 8,-0.02599078,0.08817302,-0.00019616,0.00001454,-0.00019606,0.00020885
 ,0.00030025,-0.00026657,0.00887401,-0.00670310,0.01943351,-0.00021817,
 0.00018655,0.00002505,-0.00020987,0.00002396,0.00027827,-0.00400887,-0
 .00337349,0.00181876,0.00089212,0.00075336,0.00128989,0.00000097,0.000
 03171,-0.00001111,0.00047942,-0.00039904,0.00026468,-0.00002936,-0.000
 01928,0.00001229,-0.00009898,0.00001782,0.00000382,-0.00021091,0.00026
 751,-0.00028556,-0.00003877,0.00007106,-0.00004977,0.00059315,-0.00038
 248,0.00141852,0.00021541,-0.00012535,0.00000165,0.00006299,0.00024357
 ,-0.00020570,-0.00073100,-0.00024489,-0.00036052,-0.00000358,-0.000007
 96,0.00001029,-0.00000473,-0.00000639,-0.00000431,-0.00001755,0.000016
 66,-0.00000056,0.00020127,-0.00000675,-0.00013187,0.00190270,0.0007241
 2,0.00011081,-0.00009973,-0.00001793,0.00008584,0.02522580,-0.06081573
 ,0.05300207,-0.00965018,0.01215999,-0.02502228,0.00002233,-0.00077355,
 0.00151890,-0.00374031,-0.00720535,-0.00318806,0.00355982,-0.00323801,
 0.01245961,-0.02358859,0.06966833,0.00045784,-0.00015558,0.00010208,-0
 .00037160,0.00017409,0.00009679,-0.00541388,0.00422987,-0.01343391,0.0
 0002783,-0.00011531,0.00007199,0.00038861,0.00026870,-0.00083118,0.002
 84056,0.00143280,0.00007363,-0.00078153,-0.00179809,0.00086714,0.00003
 778,-0.00007781,0.00016772,-0.00049688,0.00052232,-0.00122401,0.000029
 18,-0.00002700,0.00000102,-0.00010161,0.00005138,0.00012333,-0.0001355
 7,-0.00000933,0.00012694,-0.00000203,-0.00018766,0.00022983,-0.0005635
 3,0.00042364,-0.00053719,0.00017722,0.00019186,-0.00003416,0.00020486,
 -0.00032086,0.00012936,0.00017670,0.00034679,0.00071640,-0.00000355,0.
 00002729,-0.00002308,-0.00004608,0.00001829,0.00006203,0.00004514,-0.0
 0003564,-0.00001982,-0.00056727,-0.00002989,0.00025148,-0.00199289,0.0
 0039391,0.00153195,-0.00033434,-0.00001930,0.00009122,-0.08256697,0.05
 264886,-0.27380004,-0.00680592,0.00957558,-0.01449391,-0.00011295,0.00
 041517,0.00065037,-0.00112955,-0.00489537,-0.00201520,0.00103209,-0.00
 088939,0.00439925,0.09586606,-0.06167206,0.29547556,0.00023992,-0.0003
 5299,0.00006237,-0.00005261,0.00024156,-0.00008257,-0.00066173,-0.0000
 6785,0.00039136,-0.01217019,-0.02543626,-0.01253043,-0.00378660,0.0012
 6359,0.00357099,0.00009121,0.00000895,-0.00003289,0.00016872,0.0000803
 3,-0.00010112,-0.00041914,-0.00137593,-0.00062302,0.00021670,0.0000411
 7,0.00057112,0.00069406,0.00031036,-0.00086438,0.00130778,0.00016668,0
 .00010210,0.00005267,-0.00003007,0.00002081,0.00000486,-0.00000467,0.0
 0000281,-0.00002148,0.00002547,-0.00004260,0.00002895,-0.00006801,-0.0
 0003756,0.00003850,0.00005563,0.00003773,-0.00001117,0.00000792,0.0000
 2367,-0.00052260,0.00003385,0.00025002,0.00000784,-0.00001582,0.000060
 81,-0.00003323,0.00006674,-0.00005211,0.00001128,0.00002529,-0.0000368
 0,0.00002651,0.00010108,-0.00003120,-0.00003820,-0.00001559,-0.0000397
 4,-0.00306739,0.00270922,-0.00091448,0.00741654,0.02223478,0.01056547,
 -0.07777881,-0.08178980,-0.04318220,0.00120445,-0.00224486,0.00128564,
 0.00009750,0.00100906,0.00045551,-0.00007828,-0.00007824,-0.00016444,0
 .08888492,-0.00013733,0.00006745,0.00004942,0.00021336,0.00017758,0.00
 000580,0.00035615,0.00034812,-0.00021145,-0.00243781,-0.00521752,-0.00
 201435,-0.00050110,0.00132412,0.00109734,-0.00005684,-0.00005724,-0.00
 004941,-0.00008777,-0.00010066,0.00009263,-0.00016179,-0.00036800,-0.0
 0027953,0.00009882,0.00025486,0.00010707,-0.00004928,0.00067773,0.0001
 8475,0.00017660,-0.00000642,0.00011159,-0.00002254,0.00002320,-0.00000
 587,-0.00000249,0.00000159,0.00001440,0.00000350,-0.00001438,0.0000508
 7,-0.00001912,0.00005168,0.00002312,-0.00005172,-0.00004154,-0.0000246
 8,0.00000588,0.00000408,-0.00000851,-0.00012192,0.00002844,0.00006096,
 0.00000305,-0.00001352,0.00000307,-0.00002502,0.00001373,0.00000191,-0
 .00008121,-0.00000166,-0.00000138,0.00011065,-0.00006630,-0.00000742,0
 .00003943,0.00000812,-0.00005725,0.00449445,-0.00161292,0.00117170,-0.
 01042773,-0.02465599,-0.01346535,-0.07829913,-0.23950165,-0.09499844,-
 0.00117925,0.00489608,0.00069383,-0.00013812,-0.00118107,-0.00063007,-
 0.00006219,0.00033410,0.00010134,0.08549995,0.25848424,-0.00008058,0.0
 0008398,-0.00002117,-0.00001886,-0.00032592,0.00008145,0.00025318,-0.0
 0027909,-0.00019945,0.00698674,0.01423238,0.00603540,0.00247170,-0.000
 25801,-0.00167305,-0.00007075,-0.00002444,0.00002752,-0.00008323,-0.00
 000048,0.00003485,0.00025211,0.00059216,0.00042870,0.00014409,-0.00030
 612,-0.00031079,-0.00067308,-0.00031955,0.00041508,-0.00066462,0.00031
 418,0.00055412,-0.00001978,0.00000528,-0.00000655,0.00000524,-0.000004
 13,0.00001532,0.00000190,-0.00000589,0.00003751,0.00000994,0.00000874,
 0.00001166,-0.00000250,-0.00002869,-0.00001076,0.00001067,0.00001089,0
 .00001527,0.00027189,0.00001524,-0.00010414,-0.00002047,0.00001492,-0.
 00000827,0.00001664,-0.00003802,0.00000687,0.00006960,0.00000592,0.000
 01666,-0.00016116,0.00018317,0.00031803,-0.00013553,-0.00000781,0.0002
 2461,-0.00105659,-0.00026772,0.00057215,0.00207704,0.00358996,0.000711
 47,-0.04279470,-0.09797838,-0.09957722,0.00047523,0.00078475,-0.000165
 13,0.00006989,0.00002447,0.00044946,0.00005966,0.00015295,0.00048058,0
 .04248668,0.10550245,0.10271141,0.00001212,0.00013268,-0.00008744,-0.0
 0011494,-0.00009268,-0.00008361,0.00018482,-0.00028341,-0.00018351,0.0
 0320671,-0.00557069,0.03251036,0.00161417,0.00004777,0.00005703,-0.000
 03595,-0.00001158,0.00001256,-0.00004394,-0.00003429,0.00009586,0.0000
 6606,0.00030995,0.00003821,-0.00010150,-0.00048748,-0.00025311,0.00156
 628,0.00056115,-0.00069685,-0.00544277,-0.00168655,0.00231285,-0.00001
 027,-0.00000408,-0.00001076,-0.00003231,-0.00000374,0.00002085,0.00001
 092,0.00000223,0.00003541,-0.00000855,0.00001060,-0.00001228,-0.000010
 15,-0.00001824,-0.00002277,0.00000583,-0.00001348,-0.00003132,0.000028
 23,-0.00001458,-0.00017865,0.00011488,0.00003628,-0.00019547,-0.000064
 31,0.00005221,0.00003112,-0.00032821,0.00015608,-0.00017540,-0.0003826
 7,-0.00089447,-0.00058914,0.00005416,0.00017092,-0.00005294,-0.0005907
 0,-0.00099246,0.00152180,-0.00266397,0.00018139,-0.02430970,-0.0455205
 0,0.00779329,-0.03840173,-0.00575104,0.00413640,0.00079574,0.00000128,
 -0.00008169,0.00004539,0.00023720,0.00068615,0.00030674,-0.00185099,0.
 00286050,-0.00988037,0.05585010,-0.00003596,0.00006694,-0.00006121,-0.
 00006402,-0.00013998,-0.00000315,0.00011343,0.00038144,0.00028702,-0.0
 0014476,-0.00133507,0.00726804,0.00081477,0.00012976,0.00085759,0.0000
 2452,0.00002036,0.00006014,0.00004674,0.00002240,-0.00002327,-0.000089
 66,0.00013305,-0.00012901,-0.00053435,0.00002789,0.00004874,-0.0000098
 1,0.00018423,-0.00065524,-0.00118749,0.00059874,0.00058160,0.00000596,
 0.00000893,-0.00000283,0.00000710,0.00001778,-0.00006712,-0.00000401,-
 0.00001686,-0.00004204,-0.00001976,0.00000722,-0.00000401,0.00000310,0
 .00001877,0.00001288,-0.00000890,-0.00001932,-0.00004222,0.00001188,-0
 .00001872,-0.00003349,0.00006787,-0.00000798,-0.00008637,-0.00000387,-
 0.00000025,0.00001108,0.00002406,-0.00000896,-0.00001455,-0.00067749,-
 0.00095354,-0.00071157,0.00025383,0.00001195,-0.00008212,0.00046206,0.
 00042303,-0.00140919,-0.00215461,-0.00026129,0.02523396,0.00630043,-0.
 05930758,0.03815143,0.00592308,-0.00198489,-0.00011853,-0.00012640,0.0
 0019429,-0.00023433,0.00035201,-0.00149423,-0.00058862,-0.00240155,0.0
 0614376,-0.02567722,-0.00694819,0.05715814,-0.00007494,0.00005486,0.00
 004674,0.00011746,0.00001375,0.00008975,0.00047751,-0.00002332,0.00003
 463,-0.00039897,0.00290306,-0.01472954,-0.00048580,-0.00072994,-0.0003
 9992,-0.00016816,-0.00013173,0.00003805,-0.00001880,0.00001977,-0.0000
 0558,0.00000141,0.00007736,0.00000849,-0.00008554,-0.00055557,-0.00015
 072,0.00001666,-0.00028933,0.00059395,0.00285909,0.00025156,0.00037399
 ,-0.00001218,0.00001596,-0.00000065,0.00001129,-0.00000748,0.00002732,
 0.00003422,-0.00002202,0.00005955,0.00000180,0.00001208,0.00000862,0.0
 0000432,-0.00001168,0.00000529,0.00001887,0.00001856,0.00002325,0.0000
 8149,0.00004157,0.00007657,-0.00003922,-0.00002269,0.00013543,0.000001
 61,-0.00001182,-0.00001094,0.00018921,0.00015733,-0.00007205,-0.000754
 39,-0.00050256,0.00019422,-0.00021408,-0.00004341,0.00039138,-0.000536
 90,-0.00064022,-0.00037444,-0.00110601,-0.00163091,-0.00485782,-0.0361
 2857,0.03946843,-0.29908406,-0.00036303,0.00219265,0.00044169,0.000008
 57,-0.00006690,0.00022540,0.00033354,-0.00049245,0.00076385,-0.0011515
 8,0.00248147,-0.01107160,0.03738114,-0.04252637,0.32721916\\0.00002640
 ,0.00001879,-0.00001796,-0.00002898,-0.00004058,0.00001231,-0.00000940
 ,0.00002676,0.00000080,-0.00002363,-0.00000511,0.00001983,0.00002244,0
 .00001066,0.00000512,-0.00000503,0.00000156,-0.00000121,0.00000296,0.0
 0000777,0.00001088,0.00001723,-0.00001183,-0.00000188,0.00000005,-0.00
 000336,-0.00000973,0.00000423,-0.00000075,0.00000306,0.00000063,-0.000
 00140,0.00000366,-0.00000118,-0.00000090,-0.00000064,-0.00000013,-0.00
 000522,0.00000017,-0.00000605,-0.00000276,-0.00000060,0.00000222,-0.00
 000176,-0.00000377,0.00000235,0.00000326,-0.00000259,-0.00000243,0.000
 00296,-0.00000412,-0.00000415,-0.00000347,0.00000244,-0.00000435,0.000
 00119,-0.00000271,-0.00000114,-0.00000150,-0.00000369,0.00000112,0.000
 00136,-0.00000114,0.00001547,-0.00000381,0.00000216,0.00000456,-0.0000
 0180,-0.00000070,-0.00001821,0.00001732,0.00000264,0.00000024,-0.00001
 873,0.00000787,0.00002851,0.00001151,-0.00002421,0.00000020,-0.0000016
 9,0.00001231,0.00000105,0.00000367,-0.00000404,-0.00001468,-0.00000128
 ,-0.00000931,0.00000061,-0.00000466,0.00000136,-0.00001094,0.00000381,
 0.00000372\\\@
 The archive entry for this job was punched.


 FAULTILY FAULTLESS, ICILY REGULAR, SPLENDIDLY NULL...
           MAUDE BY TENNYSON
 Job cpu time:       1 days  3 hours 49 minutes 31.1 seconds.
 Elapsed time:       0 days  1 hours 23 minutes 29.0 seconds.
 File lengths (MBytes):  RWF=   1189 Int=      0 D2E=      0 Chk=     31 Scr=      1
 Normal termination of Gaussian 16 at Thu Jan  9 12:05:50 2025.
