 Entering Gaussian System, Link 0=g16
 Input=gjfs/data_set_3-catalyst-Mix_17_opt.gjf
 Output=gjfs/data_set_3-catalyst-Mix_17_opt.log
 Initial command:
 /usr/local/intel/g16/l1.exe "/scr/Gau-61026.inp" -scrdir="/scr/"
 Entering Link 1 = /usr/local/intel/g16/l1.exe PID=     61028.
  
 Copyright (c) 1988-2019, Gaussian, Inc.  All Rights Reserved.
  
 This is part of the Gaussian(R) 16 program.  It is based on
 the Gaussian(R) 09 system (copyright 2009, Gaussian, Inc.),
 the Gaussian(R) 03 system (copyright 2003, Gaussian, Inc.),
 the Gaussian(R) 98 system (copyright 1998, Gaussian, Inc.),
 the Gaussian(R) 94 system (copyright 1995, Gaussian, Inc.),
 the Gaussian 92(TM) system (copyright 1992, Gaussian, Inc.),
 the Gaussian 90(TM) system (copyright 1990, Gaussian, Inc.),
 the Gaussian 88(TM) system (copyright 1988, Gaussian, Inc.),
 the Gaussian 86(TM) system (copyright 1986, Carnegie Mellon
 University), and the Gaussian 82(TM) system (copyright 1983,
 Carnegie Mellon University). Gaussian is a federally registered
 trademark of Gaussian, Inc.
  
 This software contains proprietary and confidential information,
 including trade secrets, belonging to Gaussian, Inc.
  
 This software is provided under written license and may be
 used, copied, transmitted, or stored only in accord with that
 written license.
  
 The following legend is applicable only to US Government
 contracts under FAR:
  
                    RESTRICTED RIGHTS LEGEND
  
 Use, reproduction and disclosure by the US Government is
 subject to restrictions as set forth in subparagraphs (a)
 and (c) of the Commercial Computer Software - Restricted
 Rights clause in FAR 52.227-19.
  
 Gaussian, Inc.
 340 Quinnipiac St., Bldg. 40, Wallingford CT 06492
  
  
 ---------------------------------------------------------------
 Warning -- This program may not be used in any manner that
 competes with the business of Gaussian, Inc. or will provide
 assistance to any competitor of Gaussian, Inc.  The licensee
 of this program is prohibited from giving any competitor of
 Gaussian, Inc. access to this program.  By using this program,
 the user acknowledges that Gaussian, Inc. is engaged in the
 business of creating and licensing software in the field of
 computational chemistry and represents and warrants to the
 licensee that it is not a competitor of Gaussian, Inc. and that
 it will not use this program in any manner prohibited above.
 ---------------------------------------------------------------
  

 Cite this work as:
 Gaussian 16, Revision C.01,
 M. J. Frisch, G. W. Trucks, H. B. Schlegel, G. E. Scuseria, 
 M. A. Robb, J. R. Cheeseman, G. Scalmani, V. Barone, 
 G. A. Petersson, H. Nakatsuji, X. Li, M. Caricato, A. V. Marenich, 
 J. Bloino, B. G. Janesko, R. Gomperts, B. Mennucci, H. P. Hratchian, 
 J. V. Ortiz, A. F. Izmaylov, J. L. Sonnenberg, D. Williams-Young, 
 F. Ding, F. Lipparini, F. Egidi, J. Goings, B. Peng, A. Petrone, 
 T. Henderson, D. Ranasinghe, V. G. Zakrzewski, J. Gao, N. Rega, 
 G. Zheng, W. Liang, M. Hada, M. Ehara, K. Toyota, R. Fukuda, 
 J. Hasegawa, M. Ishida, T. Nakajima, Y. Honda, O. Kitao, H. Nakai, 
 T. Vreven, K. Throssell, J. A. Montgomery, Jr., J. E. Peralta, 
 F. Ogliaro, M. J. Bearpark, J. J. Heyd, E. N. Brothers, K. N. Kudin, 
 V. N. Staroverov, T. A. Keith, R. Kobayashi, J. Normand, 
 K. Raghavachari, A. P. Rendell, J. C. Burant, S. S. Iyengar, 
 J. Tomasi, M. Cossi, J. M. Millam, M. Klene, C. Adamo, R. Cammi, 
 J. W. Ochterski, R. L. Martin, K. Morokuma, O. Farkas, 
 J. B. Foresman, and D. J. Fox, Gaussian, Inc., Wallingford CT, 2019.
 
 ******************************************
 Gaussian 16:  ES64L-G16RevC.01  3-Jul-2019
                 9-Jan-2025 
 ******************************************
 %nprocshared=20
 Will use up to   20 processors via shared memory.
 %mem=30GB
 %chk=outputs/data_set_3-catalyst-Mix_17_opt.chk
 ----------------------------------
 #p M062X/DEF2TZVP opt freq pop=NBO
 ----------------------------------
 1/18=20,19=15,26=3,38=1/1,3;
 2/9=110,12=2,17=6,18=5,40=1/2;
 3/5=44,7=101,11=2,25=1,30=1,71=1,74=-55/1,2,3;
 4//1;
 5/5=2,38=5/2;
 6/7=2,8=2,9=2,10=2,28=1,40=1/1,7;
 7//1,2,3,16;
 1/18=20,19=15,26=3/3(2);
 2/9=110/2;
 99//99;
 2/9=110/2;
 3/5=44,7=101,11=2,25=1,30=1,71=1,74=-55/1,2,3;
 4/5=5,16=3,69=1/1;
 5/5=2,38=5/2;
 7//1,2,3,16;
 1/18=20,19=15,26=3/3(-5);
 2/9=110/2;
 6/7=2,8=2,9=2,10=2,19=2,28=1,40=1/1,7;
 99/9=1/99;
 Leave Link    1 at Thu Jan  9 15:45:20 2025, MaxMem=  4026531840 cpu:               1.0 elap:               0.1
 (Enter /usr/local/intel/g16/l101.exe)
 ------------------------------
 data_set_3-catalyst-Mix_17_opt
 ------------------------------
 Symbolic Z-matrix:
 Charge =  0 Multiplicity = 2
 O                    -0.57108  -1.98369  -0.22142 
 N                    -0.27934  -0.71196  -0.00864 
 C                    -1.38122   0.27914  -0.2269 
 C                     1.18204  -0.37729   0.06174 
 C                    -2.68659  -0.28658   0.39358 
 C                    -1.61304   0.5335   -1.75279 
 C                     1.73309  -0.41863  -1.39789 
 C                     1.89891  -1.45601   0.91749 
 H                    -3.02559  -1.13306  -0.20933 
 H                    -3.44365   0.50399   0.30228 
 H                    -0.80975   1.17084  -2.14308 
 H                    -2.53431   1.12706  -1.82683 
 H                     1.23525   0.35357  -1.99694 
 H                     1.43467  -1.38627  -1.81821 
 H                     2.92192  -1.09869   1.09119 
 H                     1.97084  -2.37696   0.32997 
 C                    -1.73873  -0.70725  -2.65079 
 C                    -2.59015  -0.74453   1.85752 
 C                     1.23927  -1.78383   2.26677 
 C                     3.25574  -0.25526  -1.54138 
 C                    -1.02579   1.62237   0.44994 
 C                     0.40705   2.07205   0.19366 
 C                     1.37104   1.00733   0.71873 
 H                    -0.81505  -1.29117  -2.66008 
 H                    -1.96016  -0.39531  -3.67781 
 H                    -2.53969  -1.37357  -2.3191 
 H                    -1.90928  -1.59407   1.94826 
 H                    -3.57683  -1.06246   2.21152 
 H                    -2.24201   0.05125   2.52497 
 H                     0.28873  -2.29845   2.11077 
 H                     1.05031  -0.88819   2.86943 
 H                     1.89236  -2.44252   2.84948 
 H                     3.79785  -1.06681  -1.04691 
 H                     3.61204   0.69438  -1.12629 
 H                     3.53049  -0.27279  -2.6014 
 H                    -1.149     1.55315   1.53541 
 H                    -1.72109   2.388     0.09121 
 H                     1.21171   0.93313   1.80017 
 H                     2.411     1.32181   0.56806 
 O                     0.56622   3.32567   0.91819 
 H                     0.58086   2.253    -0.87662 
 H                     1.47289   3.66802   0.81812 
 
 ITRead=  0  0  0  0  0  0  0  0  0  0  0  0  0  0  0  0  0  0  0  0
 ITRead=  0  0  0  0  0  0  0  0  0  0  0  0  0  0  0  0  0  0  0  0
 ITRead=  0  0
 MicOpt= -1 -1 -1 -1 -1 -1 -1 -1 -1 -1 -1 -1 -1 -1 -1 -1 -1 -1 -1 -1
 MicOpt= -1 -1 -1 -1 -1 -1 -1 -1 -1 -1 -1 -1 -1 -1 -1 -1 -1 -1 -1 -1
 MicOpt= -1 -1
 NAtoms=     42 NQM=       42 NQMF=       0 NMMI=      0 NMMIF=      0
                NMic=       0 NMicF=      0.
                    Isotopes and Nuclear Properties:
 (Nuclear quadrupole moments (NQMom) in fm**2, nuclear magnetic moments (NMagM)
  in nuclear magnetons)

  Atom         1           2           3           4           5           6           7           8           9          10
 IAtWgt=          16          14          12          12          12          12          12          12           1           1
 AtmWgt=  15.9949146  14.0030740  12.0000000  12.0000000  12.0000000  12.0000000  12.0000000  12.0000000   1.0078250   1.0078250
 NucSpn=           0           2           0           0           0           0           0           0           1           1
 AtZEff=  -0.0000000  -0.0000000  -0.0000000  -0.0000000  -0.0000000  -0.0000000  -0.0000000  -0.0000000  -0.0000000  -0.0000000
 NQMom=    0.0000000   2.0440000   0.0000000   0.0000000   0.0000000   0.0000000   0.0000000   0.0000000   0.0000000   0.0000000
 NMagM=    0.0000000   0.4037610   0.0000000   0.0000000   0.0000000   0.0000000   0.0000000   0.0000000   2.7928460   2.7928460
 AtZNuc=   8.0000000   7.0000000   6.0000000   6.0000000   6.0000000   6.0000000   6.0000000   6.0000000   1.0000000   1.0000000

  Atom        11          12          13          14          15          16          17          18          19          20
 IAtWgt=           1           1           1           1           1           1          12          12          12          12
 AtmWgt=   1.0078250   1.0078250   1.0078250   1.0078250   1.0078250   1.0078250  12.0000000  12.0000000  12.0000000  12.0000000
 NucSpn=           1           1           1           1           1           1           0           0           0           0
 AtZEff=  -0.0000000  -0.0000000  -0.0000000  -0.0000000  -0.0000000  -0.0000000  -0.0000000  -0.0000000  -0.0000000  -0.0000000
 NQMom=    0.0000000   0.0000000   0.0000000   0.0000000   0.0000000   0.0000000   0.0000000   0.0000000   0.0000000   0.0000000
 NMagM=    2.7928460   2.7928460   2.7928460   2.7928460   2.7928460   2.7928460   0.0000000   0.0000000   0.0000000   0.0000000
 AtZNuc=   1.0000000   1.0000000   1.0000000   1.0000000   1.0000000   1.0000000   6.0000000   6.0000000   6.0000000   6.0000000

  Atom        21          22          23          24          25          26          27          28          29          30
 IAtWgt=          12          12          12           1           1           1           1           1           1           1
 AtmWgt=  12.0000000  12.0000000  12.0000000   1.0078250   1.0078250   1.0078250   1.0078250   1.0078250   1.0078250   1.0078250
 NucSpn=           0           0           0           1           1           1           1           1           1           1
 AtZEff=  -0.0000000  -0.0000000  -0.0000000  -0.0000000  -0.0000000  -0.0000000  -0.0000000  -0.0000000  -0.0000000  -0.0000000
 NQMom=    0.0000000   0.0000000   0.0000000   0.0000000   0.0000000   0.0000000   0.0000000   0.0000000   0.0000000   0.0000000
 NMagM=    0.0000000   0.0000000   0.0000000   2.7928460   2.7928460   2.7928460   2.7928460   2.7928460   2.7928460   2.7928460
 AtZNuc=   6.0000000   6.0000000   6.0000000   1.0000000   1.0000000   1.0000000   1.0000000   1.0000000   1.0000000   1.0000000

  Atom        31          32          33          34          35          36          37          38          39          40
 IAtWgt=           1           1           1           1           1           1           1           1           1          16
 AtmWgt=   1.0078250   1.0078250   1.0078250   1.0078250   1.0078250   1.0078250   1.0078250   1.0078250   1.0078250  15.9949146
 NucSpn=           1           1           1           1           1           1           1           1           1           0
 AtZEff=  -0.0000000  -0.0000000  -0.0000000  -0.0000000  -0.0000000  -0.0000000  -0.0000000  -0.0000000  -0.0000000  -0.0000000
 NQMom=    0.0000000   0.0000000   0.0000000   0.0000000   0.0000000   0.0000000   0.0000000   0.0000000   0.0000000   0.0000000
 NMagM=    2.7928460   2.7928460   2.7928460   2.7928460   2.7928460   2.7928460   2.7928460   2.7928460   2.7928460   0.0000000
 AtZNuc=   1.0000000   1.0000000   1.0000000   1.0000000   1.0000000   1.0000000   1.0000000   1.0000000   1.0000000   8.0000000

  Atom        41          42
 IAtWgt=           1           1
 AtmWgt=   1.0078250   1.0078250
 NucSpn=           1           1
 AtZEff=  -0.0000000  -0.0000000
 NQMom=    0.0000000   0.0000000
 NMagM=    2.7928460   2.7928460
 AtZNuc=   1.0000000   1.0000000
 Leave Link  101 at Thu Jan  9 15:45:21 2025, MaxMem=  4026531840 cpu:              22.4 elap:               1.1
 (Enter /usr/local/intel/g16/l103.exe)

 GradGradGradGradGradGradGradGradGradGradGradGradGradGradGradGradGradGrad
 Berny optimization.
 Initialization pass.
                           ----------------------------
                           !    Initial Parameters    !
                           ! (Angstroms and Degrees)  !
 --------------------------                            --------------------------
 ! Name  Definition              Value          Derivative Info.                !
 --------------------------------------------------------------------------------
 ! R1    R(1,2)                  1.322          estimate D2E/DX2                !
 ! R2    R(2,3)                  1.498          estimate D2E/DX2                !
 ! R3    R(2,4)                  1.5009         estimate D2E/DX2                !
 ! R4    R(3,5)                  1.5521         estimate D2E/DX2                !
 ! R5    R(3,6)                  1.5642         estimate D2E/DX2                !
 ! R6    R(3,21)                 1.5455         estimate D2E/DX2                !
 ! R7    R(4,7)                  1.5607         estimate D2E/DX2                !
 ! R8    R(4,8)                  1.5524         estimate D2E/DX2                !
 ! R9    R(4,23)                 1.5442         estimate D2E/DX2                !
 ! R10   R(5,9)                  1.0931         estimate D2E/DX2                !
 ! R11   R(5,10)                 1.0984         estimate D2E/DX2                !
 ! R12   R(5,18)                 1.5369         estimate D2E/DX2                !
 ! R13   R(6,11)                 1.0972         estimate D2E/DX2                !
 ! R14   R(6,12)                 1.0984         estimate D2E/DX2                !
 ! R15   R(6,17)                 1.5368         estimate D2E/DX2                !
 ! R16   R(7,13)                 1.0968         estimate D2E/DX2                !
 ! R17   R(7,14)                 1.0964         estimate D2E/DX2                !
 ! R18   R(7,20)                 1.5381         estimate D2E/DX2                !
 ! R19   R(8,15)                 1.0975         estimate D2E/DX2                !
 ! R20   R(8,16)                 1.0948         estimate D2E/DX2                !
 ! R21   R(8,19)                 1.5373         estimate D2E/DX2                !
 ! R22   R(17,24)                1.0928         estimate D2E/DX2                !
 ! R23   R(17,25)                1.096          estimate D2E/DX2                !
 ! R24   R(17,26)                1.0934         estimate D2E/DX2                !
 ! R25   R(18,27)                1.0925         estimate D2E/DX2                !
 ! R26   R(18,28)                1.0954         estimate D2E/DX2                !
 ! R27   R(18,29)                1.0954         estimate D2E/DX2                !
 ! R28   R(19,30)                1.0921         estimate D2E/DX2                !
 ! R29   R(19,31)                1.0959         estimate D2E/DX2                !
 ! R30   R(19,32)                1.0954         estimate D2E/DX2                !
 ! R31   R(20,33)                1.0941         estimate D2E/DX2                !
 ! R32   R(20,34)                1.0959         estimate D2E/DX2                !
 ! R33   R(20,35)                1.0952         estimate D2E/DX2                !
 ! R34   R(21,22)                1.5235         estimate D2E/DX2                !
 ! R35   R(21,36)                1.0946         estimate D2E/DX2                !
 ! R36   R(21,37)                1.0947         estimate D2E/DX2                !
 ! R37   R(22,23)                1.5293         estimate D2E/DX2                !
 ! R38   R(22,40)                1.4567         estimate D2E/DX2                !
 ! R39   R(22,41)                1.0993         estimate D2E/DX2                !
 ! R40   R(23,38)                1.0956         estimate D2E/DX2                !
 ! R41   R(23,39)                1.0969         estimate D2E/DX2                !
 ! R42   R(40,42)                0.9743         estimate D2E/DX2                !
 ! A1    A(1,2,3)              116.7869         estimate D2E/DX2                !
 ! A2    A(1,2,4)              115.908          estimate D2E/DX2                !
 ! A3    A(3,2,4)              125.1355         estimate D2E/DX2                !
 ! A4    A(2,3,5)              108.6166         estimate D2E/DX2                !
 ! A5    A(2,3,6)              111.022          estimate D2E/DX2                !
 ! A6    A(2,3,21)             110.0008         estimate D2E/DX2                !
 ! A7    A(5,3,6)              108.9416         estimate D2E/DX2                !
 ! A8    A(5,3,21)             109.5798         estimate D2E/DX2                !
 ! A9    A(6,3,21)             108.6602         estimate D2E/DX2                !
 ! A10   A(2,4,7)              107.0994         estimate D2E/DX2                !
 ! A11   A(2,4,8)              108.6955         estimate D2E/DX2                !
 ! A12   A(2,4,23)             109.8198         estimate D2E/DX2                !
 ! A13   A(7,4,8)              109.5175         estimate D2E/DX2                !
 ! A14   A(7,4,23)             112.2367         estimate D2E/DX2                !
 ! A15   A(8,4,23)             109.3915         estimate D2E/DX2                !
 ! A16   A(3,5,9)              108.8191         estimate D2E/DX2                !
 ! A17   A(3,5,10)             106.5054         estimate D2E/DX2                !
 ! A18   A(3,5,18)             115.8881         estimate D2E/DX2                !
 ! A19   A(9,5,10)             107.3223         estimate D2E/DX2                !
 ! A20   A(9,5,18)             108.3049         estimate D2E/DX2                !
 ! A21   A(10,5,18)            109.6871         estimate D2E/DX2                !
 ! A22   A(3,6,11)             109.4487         estimate D2E/DX2                !
 ! A23   A(3,6,12)             106.1358         estimate D2E/DX2                !
 ! A24   A(3,6,17)             116.7984         estimate D2E/DX2                !
 ! A25   A(11,6,12)            106.0325         estimate D2E/DX2                !
 ! A26   A(11,6,17)            108.7245         estimate D2E/DX2                !
 ! A27   A(12,6,17)            109.1661         estimate D2E/DX2                !
 ! A28   A(4,7,13)             109.3832         estimate D2E/DX2                !
 ! A29   A(4,7,14)             106.6072         estimate D2E/DX2                !
 ! A30   A(4,7,20)             115.7192         estimate D2E/DX2                !
 ! A31   A(13,7,14)            106.7639         estimate D2E/DX2                !
 ! A32   A(13,7,20)            108.8815         estimate D2E/DX2                !
 ! A33   A(14,7,20)            109.1132         estimate D2E/DX2                !
 ! A34   A(4,8,15)             106.9457         estimate D2E/DX2                !
 ! A35   A(4,8,16)             108.6062         estimate D2E/DX2                !
 ! A36   A(4,8,19)             115.714          estimate D2E/DX2                !
 ! A37   A(15,8,16)            107.3132         estimate D2E/DX2                !
 ! A38   A(15,8,19)            109.2996         estimate D2E/DX2                !
 ! A39   A(16,8,19)            108.6534         estimate D2E/DX2                !
 ! A40   A(6,17,24)            111.5456         estimate D2E/DX2                !
 ! A41   A(6,17,25)            109.5302         estimate D2E/DX2                !
 ! A42   A(6,17,26)            112.0038         estimate D2E/DX2                !
 ! A43   A(24,17,25)           108.3544         estimate D2E/DX2                !
 ! A44   A(24,17,26)           107.2253         estimate D2E/DX2                !
 ! A45   A(25,17,26)           108.0424         estimate D2E/DX2                !
 ! A46   A(5,18,27)            110.4826         estimate D2E/DX2                !
 ! A47   A(5,18,28)            109.7414         estimate D2E/DX2                !
 ! A48   A(5,18,29)            112.5729         estimate D2E/DX2                !
 ! A49   A(27,18,28)           107.9888         estimate D2E/DX2                !
 ! A50   A(27,18,29)           108.4351         estimate D2E/DX2                !
 ! A51   A(28,18,29)           107.4696         estimate D2E/DX2                !
 ! A52   A(8,19,30)            110.4006         estimate D2E/DX2                !
 ! A53   A(8,19,31)            112.4805         estimate D2E/DX2                !
 ! A54   A(8,19,32)            109.8343         estimate D2E/DX2                !
 ! A55   A(30,19,31)           108.2754         estimate D2E/DX2                !
 ! A56   A(30,19,32)           108.153          estimate D2E/DX2                !
 ! A57   A(31,19,32)           107.5593         estimate D2E/DX2                !
 ! A58   A(7,20,33)            111.6892         estimate D2E/DX2                !
 ! A59   A(7,20,34)            112.2442         estimate D2E/DX2                !
 ! A60   A(7,20,35)            109.6908         estimate D2E/DX2                !
 ! A61   A(33,20,34)           108.0885         estimate D2E/DX2                !
 ! A62   A(33,20,35)           107.5329         estimate D2E/DX2                !
 ! A63   A(34,20,35)           107.3916         estimate D2E/DX2                !
 ! A64   A(3,21,22)            113.5257         estimate D2E/DX2                !
 ! A65   A(3,21,36)            110.697          estimate D2E/DX2                !
 ! A66   A(3,21,37)            108.5589         estimate D2E/DX2                !
 ! A67   A(22,21,36)           106.9385         estimate D2E/DX2                !
 ! A68   A(22,21,37)           109.6215         estimate D2E/DX2                !
 ! A69   A(36,21,37)           107.3186         estimate D2E/DX2                !
 ! A70   A(21,22,23)           109.2444         estimate D2E/DX2                !
 ! A71   A(21,22,40)           105.8507         estimate D2E/DX2                !
 ! A72   A(21,22,41)           111.1661         estimate D2E/DX2                !
 ! A73   A(23,22,40)           111.0715         estimate D2E/DX2                !
 ! A74   A(23,22,41)           110.4398         estimate D2E/DX2                !
 ! A75   A(40,22,41)           108.9855         estimate D2E/DX2                !
 ! A76   A(4,23,22)            113.6443         estimate D2E/DX2                !
 ! A77   A(4,23,38)            109.9642         estimate D2E/DX2                !
 ! A78   A(4,23,39)            108.3415         estimate D2E/DX2                !
 ! A79   A(22,23,38)           107.1205         estimate D2E/DX2                !
 ! A80   A(22,23,39)           110.5412         estimate D2E/DX2                !
 ! A81   A(38,23,39)           107.0304         estimate D2E/DX2                !
 ! A82   A(22,40,42)           110.6706         estimate D2E/DX2                !
 ! D1    D(1,2,3,5)             43.293          estimate D2E/DX2                !
 ! D2    D(1,2,3,6)            -76.4695         estimate D2E/DX2                !
 ! D3    D(1,2,3,21)           163.2223         estimate D2E/DX2                !
 ! D4    D(4,2,3,5)           -154.1942         estimate D2E/DX2                !
 ! D5    D(4,2,3,6)             86.0433         estimate D2E/DX2                !
 ! D6    D(4,2,3,21)           -34.2648         estimate D2E/DX2                !
 ! D7    D(1,2,4,7)             74.7208         estimate D2E/DX2                !
 ! D8    D(1,2,4,8)            -43.516          estimate D2E/DX2                !
 ! D9    D(1,2,4,23)          -163.156          estimate D2E/DX2                !
 ! D10   D(3,2,4,7)            -87.9286         estimate D2E/DX2                !
 ! D11   D(3,2,4,8)            153.8345         estimate D2E/DX2                !
 ! D12   D(3,2,4,23)            34.1945         estimate D2E/DX2                !
 ! D13   D(2,3,5,9)            -69.9982         estimate D2E/DX2                !
 ! D14   D(2,3,5,10)           174.5935         estimate D2E/DX2                !
 ! D15   D(2,3,5,18)            52.2929         estimate D2E/DX2                !
 ! D16   D(6,3,5,9)             51.0533         estimate D2E/DX2                !
 ! D17   D(6,3,5,10)           -64.3549         estimate D2E/DX2                !
 ! D18   D(6,3,5,18)           173.3444         estimate D2E/DX2                !
 ! D19   D(21,3,5,9)           169.8106         estimate D2E/DX2                !
 ! D20   D(21,3,5,10)           54.4024         estimate D2E/DX2                !
 ! D21   D(21,3,5,18)          -67.8983         estimate D2E/DX2                !
 ! D22   D(2,3,6,11)           -75.403          estimate D2E/DX2                !
 ! D23   D(2,3,6,12)           170.5763         estimate D2E/DX2                !
 ! D24   D(2,3,6,17)            48.6366         estimate D2E/DX2                !
 ! D25   D(5,3,6,11)           165.0285         estimate D2E/DX2                !
 ! D26   D(5,3,6,12)            51.0078         estimate D2E/DX2                !
 ! D27   D(5,3,6,17)           -70.932          estimate D2E/DX2                !
 ! D28   D(21,3,6,11)           45.6971         estimate D2E/DX2                !
 ! D29   D(21,3,6,12)          -68.3236         estimate D2E/DX2                !
 ! D30   D(21,3,6,17)          169.7366         estimate D2E/DX2                !
 ! D31   D(2,3,21,22)           45.0655         estimate D2E/DX2                !
 ! D32   D(2,3,21,36)          -75.2098         estimate D2E/DX2                !
 ! D33   D(2,3,21,37)          167.2401         estimate D2E/DX2                !
 ! D34   D(5,3,21,22)          164.4087         estimate D2E/DX2                !
 ! D35   D(5,3,21,36)           44.1334         estimate D2E/DX2                !
 ! D36   D(5,3,21,37)          -73.4167         estimate D2E/DX2                !
 ! D37   D(6,3,21,22)          -76.6601         estimate D2E/DX2                !
 ! D38   D(6,3,21,36)          163.0646         estimate D2E/DX2                !
 ! D39   D(6,3,21,37)           45.5145         estimate D2E/DX2                !
 ! D40   D(2,4,7,13)            63.0828         estimate D2E/DX2                !
 ! D41   D(2,4,7,14)           -52.0047         estimate D2E/DX2                !
 ! D42   D(2,4,7,20)          -173.5331         estimate D2E/DX2                !
 ! D43   D(8,4,7,13)          -179.2166         estimate D2E/DX2                !
 ! D44   D(8,4,7,14)            65.696          estimate D2E/DX2                !
 ! D45   D(8,4,7,20)           -55.8325         estimate D2E/DX2                !
 ! D46   D(23,4,7,13)          -57.5157         estimate D2E/DX2                !
 ! D47   D(23,4,7,14)         -172.6032         estimate D2E/DX2                !
 ! D48   D(23,4,7,20)           65.8684         estimate D2E/DX2                !
 ! D49   D(2,4,8,15)          -170.7183         estimate D2E/DX2                !
 ! D50   D(2,4,8,16)            73.761          estimate D2E/DX2                !
 ! D51   D(2,4,8,19)           -48.6982         estimate D2E/DX2                !
 ! D52   D(7,4,8,15)            72.5841         estimate D2E/DX2                !
 ! D53   D(7,4,8,16)           -42.9366         estimate D2E/DX2                !
 ! D54   D(7,4,8,19)          -165.3958         estimate D2E/DX2                !
 ! D55   D(23,4,8,15)          -50.8116         estimate D2E/DX2                !
 ! D56   D(23,4,8,16)         -166.3323         estimate D2E/DX2                !
 ! D57   D(23,4,8,19)           71.2084         estimate D2E/DX2                !
 ! D58   D(2,4,23,22)          -44.8835         estimate D2E/DX2                !
 ! D59   D(2,4,23,38)           75.179          estimate D2E/DX2                !
 ! D60   D(2,4,23,39)         -168.1599         estimate D2E/DX2                !
 ! D61   D(7,4,23,22)           74.1296         estimate D2E/DX2                !
 ! D62   D(7,4,23,38)         -165.8079         estimate D2E/DX2                !
 ! D63   D(7,4,23,39)          -49.1469         estimate D2E/DX2                !
 ! D64   D(8,4,23,22)         -164.0976         estimate D2E/DX2                !
 ! D65   D(8,4,23,38)          -44.035          estimate D2E/DX2                !
 ! D66   D(8,4,23,39)           72.626          estimate D2E/DX2                !
 ! D67   D(3,5,18,27)          -64.69           estimate D2E/DX2                !
 ! D68   D(3,5,18,28)          176.3428         estimate D2E/DX2                !
 ! D69   D(3,5,18,29)           56.7            estimate D2E/DX2                !
 ! D70   D(9,5,18,27)           57.8729         estimate D2E/DX2                !
 ! D71   D(9,5,18,28)          -61.0944         estimate D2E/DX2                !
 ! D72   D(9,5,18,29)          179.2629         estimate D2E/DX2                !
 ! D73   D(10,5,18,27)         174.7096         estimate D2E/DX2                !
 ! D74   D(10,5,18,28)          55.7424         estimate D2E/DX2                !
 ! D75   D(10,5,18,29)         -63.9004         estimate D2E/DX2                !
 ! D76   D(3,6,17,24)          -63.5784         estimate D2E/DX2                !
 ! D77   D(3,6,17,25)          176.47           estimate D2E/DX2                !
 ! D78   D(3,6,17,26)           56.6164         estimate D2E/DX2                !
 ! D79   D(11,6,17,24)          60.8296         estimate D2E/DX2                !
 ! D80   D(11,6,17,25)         -59.122          estimate D2E/DX2                !
 ! D81   D(11,6,17,26)        -178.9757         estimate D2E/DX2                !
 ! D82   D(12,6,17,24)         176.078          estimate D2E/DX2                !
 ! D83   D(12,6,17,25)          56.1264         estimate D2E/DX2                !
 ! D84   D(12,6,17,26)         -63.7273         estimate D2E/DX2                !
 ! D85   D(4,7,20,33)           62.3527         estimate D2E/DX2                !
 ! D86   D(4,7,20,34)          -59.2266         estimate D2E/DX2                !
 ! D87   D(4,7,20,35)         -178.5248         estimate D2E/DX2                !
 ! D88   D(13,7,20,33)        -174.0005         estimate D2E/DX2                !
 ! D89   D(13,7,20,34)          64.4203         estimate D2E/DX2                !
 ! D90   D(13,7,20,35)         -54.878          estimate D2E/DX2                !
 ! D91   D(14,7,20,33)         -57.8239         estimate D2E/DX2                !
 ! D92   D(14,7,20,34)        -179.4031         estimate D2E/DX2                !
 ! D93   D(14,7,20,35)          61.2986         estimate D2E/DX2                !
 ! D94   D(4,8,19,30)           68.8656         estimate D2E/DX2                !
 ! D95   D(4,8,19,31)          -52.1978         estimate D2E/DX2                !
 ! D96   D(4,8,19,32)         -171.957          estimate D2E/DX2                !
 ! D97   D(15,8,19,30)        -170.3771         estimate D2E/DX2                !
 ! D98   D(15,8,19,31)          68.5596         estimate D2E/DX2                !
 ! D99   D(15,8,19,32)         -51.1997         estimate D2E/DX2                !
 ! D100  D(16,8,19,30)         -53.5686         estimate D2E/DX2                !
 ! D101  D(16,8,19,31)        -174.632          estimate D2E/DX2                !
 ! D102  D(16,8,19,32)          65.6087         estimate D2E/DX2                !
 ! D103  D(3,21,22,23)         -59.3475         estimate D2E/DX2                !
 ! D104  D(3,21,22,40)        -179.0163         estimate D2E/DX2                !
 ! D105  D(3,21,22,41)          62.7812         estimate D2E/DX2                !
 ! D106  D(36,21,22,23)         63.0326         estimate D2E/DX2                !
 ! D107  D(36,21,22,40)        -56.6363         estimate D2E/DX2                !
 ! D108  D(36,21,22,41)       -174.8387         estimate D2E/DX2                !
 ! D109  D(37,21,22,23)        179.0692         estimate D2E/DX2                !
 ! D110  D(37,21,22,40)         59.4004         estimate D2E/DX2                !
 ! D111  D(37,21,22,41)        -58.8021         estimate D2E/DX2                !
 ! D112  D(21,22,23,4)          59.3886         estimate D2E/DX2                !
 ! D113  D(21,22,23,38)        -62.2704         estimate D2E/DX2                !
 ! D114  D(21,22,23,39)       -178.5458         estimate D2E/DX2                !
 ! D115  D(40,22,23,4)         175.7823         estimate D2E/DX2                !
 ! D116  D(40,22,23,38)         54.1234         estimate D2E/DX2                !
 ! D117  D(40,22,23,39)        -62.1521         estimate D2E/DX2                !
 ! D118  D(41,22,23,4)         -63.1758         estimate D2E/DX2                !
 ! D119  D(41,22,23,38)        175.1652         estimate D2E/DX2                !
 ! D120  D(41,22,23,39)         58.8897         estimate D2E/DX2                !
 ! D121  D(21,22,40,42)        178.6827         estimate D2E/DX2                !
 ! D122  D(23,22,40,42)         60.2207         estimate D2E/DX2                !
 ! D123  D(41,22,40,42)        -61.6725         estimate D2E/DX2                !
 --------------------------------------------------------------------------------
 Trust Radius=3.00D-01 FncErr=1.00D-07 GrdErr=1.00D-06 EigMax=2.50D+02 EigMin=1.00D-04
 Number of steps in this run=    252 maximum allowed number of steps=    252.
 GradGradGradGradGradGradGradGradGradGradGradGradGradGradGradGradGradGrad

 Leave Link  103 at Thu Jan  9 15:45:21 2025, MaxMem=  4026531840 cpu:               0.3 elap:               0.0
 (Enter /usr/local/intel/g16/l202.exe)
                          Input orientation:                          
 ---------------------------------------------------------------------
 Center     Atomic      Atomic             Coordinates (Angstroms)
 Number     Number       Type             X           Y           Z
 ---------------------------------------------------------------------
      1          8           0       -0.571081   -1.983689   -0.221417
      2          7           0       -0.279343   -0.711962   -0.008636
      3          6           0       -1.381224    0.279137   -0.226901
      4          6           0        1.182041   -0.377291    0.061735
      5          6           0       -2.686585   -0.286581    0.393577
      6          6           0       -1.613038    0.533498   -1.752794
      7          6           0        1.733094   -0.418627   -1.397889
      8          6           0        1.898909   -1.456012    0.917488
      9          1           0       -3.025593   -1.133055   -0.209325
     10          1           0       -3.443649    0.503992    0.302275
     11          1           0       -0.809749    1.170842   -2.143084
     12          1           0       -2.534310    1.127063   -1.826826
     13          1           0        1.235245    0.353572   -1.996943
     14          1           0        1.434669   -1.386272   -1.818213
     15          1           0        2.921922   -1.098690    1.091186
     16          1           0        1.970836   -2.376961    0.329969
     17          6           0       -1.738727   -0.707254   -2.650787
     18          6           0       -2.590145   -0.744531    1.857519
     19          6           0        1.239268   -1.783831    2.266775
     20          6           0        3.255737   -0.255257   -1.541375
     21          6           0       -1.025789    1.622366    0.449938
     22          6           0        0.407050    2.072052    0.193659
     23          6           0        1.371038    1.007327    0.718728
     24          1           0       -0.815054   -1.291168   -2.660076
     25          1           0       -1.960155   -0.395308   -3.677811
     26          1           0       -2.539691   -1.373571   -2.319104
     27          1           0       -1.909277   -1.594073    1.948258
     28          1           0       -3.576835   -1.062460    2.211519
     29          1           0       -2.242007    0.051247    2.524972
     30          1           0        0.288725   -2.298452    2.110766
     31          1           0        1.050310   -0.888185    2.869434
     32          1           0        1.892360   -2.442524    2.849483
     33          1           0        3.797850   -1.066810   -1.046906
     34          1           0        3.612040    0.694384   -1.126292
     35          1           0        3.530490   -0.272794   -2.601401
     36          1           0       -1.149004    1.553154    1.535406
     37          1           0       -1.721086    2.388000    0.091212
     38          1           0        1.211707    0.933133    1.800174
     39          1           0        2.411002    1.321809    0.568057
     40          8           0        0.566221    3.325673    0.918190
     41          1           0        0.580859    2.252997   -0.876619
     42          1           0        1.472892    3.668017    0.818116
 ---------------------------------------------------------------------
                    Distance matrix (angstroms):
                    1          2          3          4          5
     1  O    0.000000
     2  N    1.321997   0.000000
     3  C    2.403486   1.498018   0.000000
     4  C    2.394604   1.500866   2.661679   0.000000
     5  C    2.780962   2.477406   1.552094   3.883892   0.000000
     6  C    3.125223   2.524282   1.564221   3.454637   2.536127
     7  C    3.023694   2.462919   3.399568   1.560727   4.770781
     8  C    2.770631   2.481148   3.883251   1.552370   4.761177
     9  H    2.597759   2.785585   2.167613   4.283554   1.093131
    10  H    3.835943   3.404121   2.141071   4.715032   1.098402
    11  H    3.701464   2.895194   2.189401   3.350398   3.475808
    12  H    4.013525   3.431137   2.146706   4.431818   2.636620
    13  H    3.446461   2.717113   3.159826   2.185211   4.637363
    14  H    2.632432   2.582073   3.638010   2.148504   4.804797
    15  H    3.834999   3.406944   4.706679   2.146479   5.709775
    16  H    2.630595   2.819606   4.312919   2.166293   5.105419
    17  C    2.982369   3.018408   2.641212   3.999692   3.216139
    18  C    3.151842   2.970421   2.618051   4.193935   1.536927
    19  C    3.083570   2.938125   4.164281   2.616072   4.600321
    20  C    4.401625   3.880033   4.849209   2.623942   6.249497
    21  C    3.696094   2.493303   1.545545   3.003971   2.530909
    22  C    4.192620   2.874507   2.566971   2.572411   3.895343
    23  C    3.688072   2.491740   2.999903   1.544191   4.271326
    24  H    2.546795   2.766333   2.950720   3.497401   3.719761
    25  H    4.049585   4.048240   3.563540   4.884457   4.137115
    26  H    2.940741   3.299267   2.907026   4.529046   2.926049
    27  H    2.578771   2.695225   2.918745   3.820442   2.175035
    28  H    3.975223   3.990663   3.544923   5.266681   2.167821
    29  H    3.804683   3.294497   2.892350   4.239727   2.203321
    30  H    2.505478   2.707677   3.859713   2.947440   3.981059
    31  H    3.658196   3.175267   4.106372   2.856841   4.522851
    32  H    3.963521   3.984970   5.252421   3.541367   5.625505
    33  H    4.539786   4.222253   5.413575   2.923522   6.688172
    34  H    5.048700   4.286003   5.090581   2.909431   6.553241
    35  H    5.041267   4.629268   5.483412   3.552242   6.900877
    36  H    3.991200   2.875957   2.186955   3.366318   2.655664
    37  H    4.531215   3.420286   2.159631   4.009470   2.859545
    38  H    3.971525   2.863802   3.355598   2.177214   4.320058
    39  H    4.521328   3.421514   4.012493   2.157232   5.348154
    40  O    5.548106   4.228059   3.792777   3.850285   4.889207
    41  H    4.439117   3.206918   2.857976   2.856631   4.328862
    42  H    6.099200   4.789370   4.552202   4.125679   5.755026
                    6          7          8          9         10
     6  C    0.000000
     7  C    3.497013   0.000000
     8  C    4.839662   2.542564   0.000000
     9  H    2.674884   4.956631   5.062087   0.000000
    10  H    2.752329   5.526342   5.723900   1.765341   0.000000
    11  H    1.097181   3.089948   4.858425   3.735951   3.655393
    12  H    1.098427   4.558934   5.818674   2.822375   2.397537
    13  H    2.864384   1.096818   3.494131   4.853903   5.215465
    14  H    3.602543   1.096388   2.775688   4.748324   5.645135
    15  H    5.596260   2.841002   1.097454   6.088140   6.611465
    16  H    5.064862   2.622420   1.094760   5.177108   6.133295
    17  C    1.536768   3.702243   5.150303   2.792502   3.618626
    18  C    3.952525   5.421650   4.641279   2.147652   2.169346
    19  C    5.446338   3.941752   1.537260   4.974296   5.569839
    20  C    4.936781   1.538090   3.054309   6.480740   6.989798
    21  C    2.526366   3.897634   4.271870   3.467880   2.668073
    22  C    3.199466   3.239583   3.898308   4.713613   4.159146
    23  C    3.903543   2.577692   2.527092   4.977236   4.858805
    24  H    2.188457   2.974475   4.493521   3.304189   4.348291
    25  H    2.165378   4.340354   6.093787   3.702678   4.341725
    26  H    2.194608   4.474064   5.493951   2.178329   3.348733
    27  H    4.279264   5.083821   3.947636   2.472623   3.076595
    28  H    4.703122   6.452728   5.640317   2.483815   2.473201
    29  H    4.350569   5.604556   4.690738   3.081064   2.566964
    30  H    5.154002   4.234454   2.174008   4.210187   5.005492
    31  H    5.520833   4.347036   2.202871   5.113874   5.359490
    32  H    6.505803   4.707621   2.169298   5.937784   6.606301
    33  H    5.686561   2.192384   2.759764   6.874977   7.531734
    34  H    5.264962   2.200681   3.425793   6.945397   7.201375
    35  H    5.275047   2.168027   4.055199   7.031664   7.594297
    36  H    3.473800   4.560551   4.327433   3.712330   2.808336
    37  H    2.617482   4.693180   5.344485   3.766947   2.561495
    38  H    4.556586   3.510941   2.638067   5.124640   4.909196
    39  H    4.711760   2.711756   2.846161   6.015584   5.917466
    40  O    4.436166   4.554733   4.963927   5.835467   4.941689
    41  H    2.921908   2.955832   4.325832   4.991706   4.543729
    42  H    5.094875   4.656076   5.142668   6.659001   5.869371
                   11         12         13         14         15
    11  H    0.000000
    12  H    1.753866   0.000000
    13  H    2.207099   3.851853   0.000000
    14  H    3.417863   4.697842   1.760333   0.000000
    15  H    5.434763   6.575655   3.806637   3.280126   0.000000
    16  H    5.141454   6.101335   3.662161   2.425619   1.765784
    17  C    2.155924   2.162541   3.224496   3.350326   5.989761
    18  C    4.779465   4.132842   5.540426   5.488348   5.576341
    19  C    5.689940   6.282576   4.769465   4.108937   2.163967
    20  C    4.350171   5.959609   2.158843   2.161509   2.784455
    21  C    2.640892   2.775719   3.565016   4.500029   4.837331
    22  C    2.784447   3.691472   2.904792   4.130815   4.145328
    23  C    3.601741   4.663253   2.796552   3.488472   2.641832
    24  H    2.515711   3.081881   2.710838   2.403962   5.298491
    25  H    2.476216   2.464430   3.687373   3.995616   6.860959
    26  H    3.081837   2.548634   4.163767   4.005820   6.444754
    27  H    5.058932   4.695371   5.407953   5.040978   4.931578
    28  H    5.622008   4.710531   6.547703   6.438848   6.594718
    29  H    5.009551   4.492323   5.712302   5.869213   5.481264
    30  H    5.598025   5.933659   4.980201   4.193106   3.068012
    31  H    5.729289   6.242242   5.025713   4.729678   2.590253
    32  H    6.729304   7.362420   5.633631   4.807550   2.440798
    33  H    5.238193   6.746674   3.080097   2.506311   2.310780
    34  H    4.562137   6.201256   2.554083   3.090118   2.934039
    35  H    4.596935   6.272270   2.454761   2.499136   3.832448
    36  H    3.713832   3.661315   4.427316   5.153868   4.878734
    37  H    2.702608   2.435193   4.152009   5.277293   5.891899
    38  H    4.437575   5.217795   3.841164   4.303728   2.748782
    39  H    4.212637   5.498136   2.983138   3.739146   2.528541
    40  O    3.988482   4.688528   4.216513   5.517656   5.015401
    41  H    2.169973   3.445997   2.300253   3.854850   4.537250
    42  H    4.496114   5.432295   4.355064   5.700660   4.989564
                   16         17         18         19         20
    16  H    0.000000
    17  C    5.043182   0.000000
    18  C    5.079447   4.588151   0.000000
    19  C    2.153651   5.848922   3.988990   0.000000
    20  C    3.107173   5.136124   6.779838   4.572165   0.000000
    21  C    4.998877   3.943337   3.167127   4.475886   5.081561
    22  C    4.717809   4.518824   4.436750   4.456257   4.067152
    23  C    3.458944   4.895310   4.478484   3.194429   3.202230
    24  H    4.228534   1.092801   4.884509   5.360673   4.346946
    25  H    5.953313   1.095956   5.582000   6.892199   5.638218
    26  H    5.326278   1.093405   4.224028   5.956436   5.953358
    27  H    4.276336   4.686870   1.092491   3.170299   6.375526
    28  H    6.003732   5.210262   1.095423   4.870141   7.837080
    29  H    5.335005   5.255197   1.095425   3.943787   6.845021
    30  H    2.450898   5.414320   3.281265   1.092111   5.129906
    31  H    3.084267   6.187431   3.781206   1.095940   4.971895
    32  H    2.521588   6.815345   4.894898   1.095424   5.091421
    33  H    2.636335   5.775413   7.024673   4.247463   1.094077
    34  H    3.774574   5.737541   7.031408   4.825402   1.095931
    35  H    3.931027   5.287328   7.587271   5.588566   1.095195
    36  H    5.160648   4.793895   2.731300   4.168239   5.669098
    37  H    6.032590   4.135150   3.699710   5.558862   5.866934
    38  H    3.700608   5.586321   4.155950   2.756877   4.093443
    39  H    3.732470   5.630125   5.562728   3.728754   2.765939
    40  O    5.902456   5.857891   5.235604   5.327167   5.109405
    41  H    4.982409   4.158273   5.149364   5.158528   3.726689
    42  H    6.085063   6.441334   6.087627   5.645869   4.913025
                   21         22         23         24         25
    21  C    0.000000
    22  C    1.523458   0.000000
    23  C    2.489036   1.529251   0.000000
    24  H    4.266764   4.576963   4.634479   0.000000
    25  H    4.688535   5.165250   5.691554   1.774713   0.000000
    26  H    4.351452   5.183587   5.494625   1.759950   1.771707
    27  H    3.656637   4.678083   4.363427   4.746137   5.752589
    28  H    4.101133   5.456030   5.567216   5.604657   6.143529
    29  H    2.872867   4.066470   4.150988   5.542833   6.225220
    30  H    4.456356   4.773951   3.746645   4.999388   6.495155
    31  H    4.057957   4.041851   2.884678   5.849569   7.223036
    32  H    5.549481   5.444350   4.088198   6.245875   7.851021
    33  H    5.721862   4.784243   3.648140   4.891987   6.366098
    34  H    4.985490   3.729906   2.919610   5.088622   6.224712
    35  H    5.801894   4.802764   4.162355   4.463662   5.596503
    36  H    1.094629   2.119161   2.704718   5.079740   5.624242
    37  H    1.094677   2.153899   3.444019   4.682602   4.691427
    38  H    2.702696   2.127322   1.095635   5.380437   6.467904
    39  H    3.451930   2.172294   1.096871   5.258890   6.331106
    40  O    2.378027   1.456656   2.462162   6.002260   6.430513
    41  H    2.176871   1.099293   2.172834   4.205995   4.617028
    42  H    3.250177   2.018185   2.664493   6.475031   6.964896
                   26         27         28         29         30
    26  H    0.000000
    27  H    4.319308   0.000000
    28  H    4.658219   1.769935   0.000000
    29  H    5.058043   1.774933   1.766455   0.000000
    30  H    5.336580   2.313822   4.059604   3.478111   0.000000
    31  H    6.328083   3.178993   4.676932   3.441008   1.773257
    32  H    6.892026   3.998064   5.676590   4.839131   1.771470
    33  H    6.471245   6.466863   8.062464   7.105507   4.878708
    34  H    6.598714   6.721223   8.118338   6.929302   5.520873
    35  H    6.175638   7.213615   8.619852   7.726993   6.067689
    36  H    5.035571   3.263970   3.632207   2.104666   4.151262
    37  H    4.541933   4.397834   4.454793   3.413936   5.484594
    38  H    6.030118   4.018612   5.204011   3.637471   3.375130
    39  H    6.333256   5.391858   6.651308   5.205222   4.471051
    40  O    6.496896   5.602948   6.171979   4.603233   5.755869
    41  H    4.997058   5.383368   6.149412   4.938329   5.452110
    42  H    7.166630   6.356562   7.058238   5.458467   6.218677
                   31         32         33         34         35
    31  H    0.000000
    32  H    1.767885   0.000000
    33  H    4.787338   4.550311   0.000000
    34  H    5.003280   5.348297   1.772747   0.000000
    35  H    6.038215   6.091251   1.765898   1.765795   0.000000
    36  H    3.546371   5.190581   6.164731   5.521744   6.507298
    37  H    5.112000   6.633175   6.609817   5.726507   6.473719
    38  H    2.118151   3.599916   4.335178   3.792467   5.119070
    39  H    3.468702   4.432166   3.199524   2.169556   3.720413
    40  O    4.668864   6.225804   5.796459   4.514488   5.841522
    41  H    4.911244   6.136105   4.625921   3.417553   4.249096
    42  H    5.014525   6.452993   5.594848   4.147188   5.608636
                   36         37         38         39         40
    36  H    0.000000
    37  H    1.763503   0.000000
    38  H    2.455094   3.693029   0.000000
    39  H    3.696340   4.293984   1.762807   0.000000
    40  O    2.542592   2.606702   2.630360   2.746139   0.000000
    41  H    3.049602   2.500775   3.050448   2.510702   2.090978
    42  H    3.444051   3.516863   2.917575   2.539148   0.974303
                   41         42
    41  H    0.000000
    42  H    2.381204   0.000000
 Stoichiometry    C13H26NO2(2)
 Framework group  C1[X(C13H26NO2)]
 Deg. of freedom   120
 Full point group                 C1      NOp   1
 Largest Abelian subgroup         C1      NOp   1
 Largest concise Abelian subgroup C1      NOp   1
                         Standard orientation:                         
 ---------------------------------------------------------------------
 Center     Atomic      Atomic             Coordinates (Angstroms)
 Number     Number       Type             X           Y           Z
 ---------------------------------------------------------------------
      1          8           0        0.571081   -1.983689    0.221417
      2          7           0        0.279343   -0.711962    0.008636
      3          6           0        1.381224    0.279137    0.226901
      4          6           0       -1.182041   -0.377291   -0.061735
      5          6           0        2.686585   -0.286581   -0.393577
      6          6           0        1.613038    0.533498    1.752794
      7          6           0       -1.733094   -0.418627    1.397889
      8          6           0       -1.898909   -1.456012   -0.917488
      9          1           0        3.025593   -1.133055    0.209325
     10          1           0        3.443649    0.503992   -0.302275
     11          1           0        0.809749    1.170842    2.143084
     12          1           0        2.534310    1.127063    1.826826
     13          1           0       -1.235245    0.353572    1.996943
     14          1           0       -1.434669   -1.386272    1.818213
     15          1           0       -2.921922   -1.098690   -1.091186
     16          1           0       -1.970836   -2.376961   -0.329969
     17          6           0        1.738727   -0.707254    2.650787
     18          6           0        2.590145   -0.744531   -1.857519
     19          6           0       -1.239268   -1.783831   -2.266775
     20          6           0       -3.255737   -0.255257    1.541375
     21          6           0        1.025789    1.622366   -0.449938
     22          6           0       -0.407050    2.072052   -0.193659
     23          6           0       -1.371038    1.007327   -0.718728
     24          1           0        0.815054   -1.291168    2.660076
     25          1           0        1.960155   -0.395308    3.677811
     26          1           0        2.539691   -1.373571    2.319104
     27          1           0        1.909277   -1.594073   -1.948258
     28          1           0        3.576835   -1.062460   -2.211519
     29          1           0        2.242007    0.051247   -2.524972
     30          1           0       -0.288725   -2.298452   -2.110766
     31          1           0       -1.050310   -0.888185   -2.869434
     32          1           0       -1.892360   -2.442524   -2.849483
     33          1           0       -3.797850   -1.066810    1.046906
     34          1           0       -3.612040    0.694384    1.126292
     35          1           0       -3.530490   -0.272794    2.601401
     36          1           0        1.149004    1.553154   -1.535406
     37          1           0        1.721086    2.388000   -0.091212
     38          1           0       -1.211707    0.933133   -1.800174
     39          1           0       -2.411002    1.321809   -0.568057
     40          8           0       -0.566221    3.325673   -0.918190
     41          1           0       -0.580859    2.252997    0.876619
     42          1           0       -1.472892    3.668017   -0.818116
 ---------------------------------------------------------------------
 Rotational constants (GHZ):           0.5614082           0.4631158           0.4292124
 Leave Link  202 at Thu Jan  9 15:45:21 2025, MaxMem=  4026531840 cpu:               0.1 elap:               0.0
 (Enter /usr/local/intel/g16/l301.exe)
 Standard basis: def2TZVP (5D, 7F)
 Ernie: Thresh=  0.10000D-02 Tol=  0.10000D-05 Strict=F.
 There are   732 symmetry adapted cartesian basis functions of A   symmetry.
 There are   652 symmetry adapted basis functions of A   symmetry.
   652 basis functions,  1024 primitive gaussians,   732 cartesian basis functions
    64 alpha electrons       63 beta electrons
       nuclear repulsion energy      1317.6597198825 Hartrees.
 IExCor= 4336 DFT=T Ex+Corr=M062X ExCW=0 ScaHFX=  0.540000
 ScaDFX=  1.000000  1.000000  1.000000  1.000000 ScalE2=  1.000000  1.000000
 IRadAn=      5 IRanWt=     -1 IRanGd=            0 ICorTp=0 IEmpDi=  4
 NAtoms=   42 NActive=   42 NUniq=   42 SFac= 1.00D+00 NAtFMM=   60 NAOKFM=F Big=F
 Integral buffers will be    131072 words long.
 Raffenetti 2 integral format.
 Two-electron integral symmetry is turned on.
 Leave Link  301 at Thu Jan  9 15:45:21 2025, MaxMem=  4026531840 cpu:               1.2 elap:               0.1
 (Enter /usr/local/intel/g16/l302.exe)
 NPDir=0 NMtPBC=     1 NCelOv=     1 NCel=       1 NClECP=     1 NCelD=      1
         NCelK=      1 NCelE2=     1 NClLst=     1 CellRange=     0.0.
 One-electron integrals computed using PRISM.
 One-electron integral symmetry used in STVInt
   1 Symmetry operations used in ECPInt.
 ECPInt:  NShTT=   39340 NPrTT=  113956 LenC2=   37355 LenP2D=   81044.
 LDataN:  DoStor=T MaxTD1= 6 Len=  172
 NBasis=   652 RedAO= T EigKep=  3.60D-05  NBF=   652
 NBsUse=   652 1.00D-06 EigRej= -1.00D+00 NBFU=   652
 Precomputing XC quadrature grid using
 IXCGrd= 4 IRadAn=           5 IRanWt=          -1 IRanGd=           0 AccXCQ= 0.00D+00.
 Generated NRdTot=       0 NPtTot=           0 NUsed=           0 NTot=          32
 NSgBfM=   726   726   726   726   726 MxSgAt=    42 MxSgA2=    42.
 Leave Link  302 at Thu Jan  9 15:45:23 2025, MaxMem=  4026531840 cpu:              31.6 elap:               1.6
 (Enter /usr/local/intel/g16/l303.exe)
 DipDrv:  MaxL=1.
 Leave Link  303 at Thu Jan  9 15:45:23 2025, MaxMem=  4026531840 cpu:               3.8 elap:               0.3
 (Enter /usr/local/intel/g16/l401.exe)
 ExpMin= 9.52D-02 ExpMax= 2.70D+04 ExpMxC= 9.22D+02 IAcc=3 IRadAn=         5 AccDes= 0.00D+00
 Harris functional with IExCor= 1009 and IRadAn=       5 diagonalized for initial guess.
 HarFok:  IExCor= 1009 AccDes= 0.00D+00 IRadAn=         5 IDoV= 1 UseB2=F ITyADJ=14
 ICtDFT=  3500011 ScaDFX=  1.000000  1.000000  1.000000  1.000000
 FoFCou: FMM=F IPFlag=           0 FMFlag=      100000 FMFlg1=           0
         NFxFlg=           0 DoJE=T BraDBF=F KetDBF=T FulRan=T
         wScrn=  0.000000 ICntrl=       500 IOpCl=  0 I1Cent=   200000004 NGrid=           0
         NMat0=    1 NMatS0=      1 NMatT0=    0 NMatD0=    1 NMtDS0=    0 NMtDT0=    0
 Petite list used in FoFCou.
 Harris En= -715.887212712336    
 JPrj=0 DoOrth=F DoCkMO=F.
 Initial guess <Sx>= 0.0000 <Sy>= 0.0000 <Sz>= 0.5000 <S**2>= 0.7500 S= 0.5000
 Leave Link  401 at Thu Jan  9 15:45:29 2025, MaxMem=  4026531840 cpu:             109.8 elap:               5.5
 (Enter /usr/local/intel/g16/l502.exe)
 Integral symmetry usage will be decided dynamically.
 UHF open shell SCF:
 Using DIIS extrapolation, IDIIS=  1040.
 NGot=  4026531840 LenX=  4025437794 LenY=  4024901238
 Requested convergence on RMS density matrix=1.00D-08 within 128 cycles.
 Requested convergence on MAX density matrix=1.00D-06.
 Requested convergence on             energy=1.00D-06.
 No special actions if energy rises.
 Fock matrices will be formed incrementally for  20 cycles.
 Integral accuracy reduced to 1.0D-05 until final iterations.

 Cycle   1  Pass 0  IDiag  1:
 FoFJK:  IHMeth= 1 ICntrl=       0 DoSepK=F KAlg= 0 I1Cent=           0 FoldK=F
 IRaf= 900000000 NMat=       1 IRICut=       1 DoRegI=T DoRafI=F ISym2E= 0 IDoP0=0 IntGTp=1.
 FoFCou: FMM=F IPFlag=           0 FMFlag=      100000 FMFlg1=           0
         NFxFlg=           0 DoJE=F BraDBF=F KetDBF=F FulRan=T
         wScrn=  0.000000 ICntrl=         0 IOpCl=  1 I1Cent=           0 NGrid=           0
         NMat0=    1 NMatS0=      1 NMatT0=    0 NMatD0=    1 NMtDS0=    0 NMtDT0=    0
 Symmetry not used in FoFCou.
 E= -715.522720280886    
 DIIS: error= 1.95D-02 at cycle   1 NSaved=   1.
 NSaved= 1 IEnMin= 1 EnMin= -715.522720280886     IErMin= 1 ErrMin= 1.95D-02
 ErrMax= 1.95D-02  0.00D+00 EMaxC= 1.00D-01 BMatC= 2.82D+00 BMatP= 2.82D+00
 IDIUse=3 WtCom= 8.05D-01 WtEn= 1.95D-01
 Coeff-Com:  0.100D+01
 Coeff-En:   0.100D+01
 Coeff:      0.100D+01
 Gap=     0.363 Goal=   None    Shift=    0.000
 Gap=     0.222 Goal=   None    Shift=    0.000
 GapD=    0.222 DampG=1.000 DampE=0.500 DampFc=0.5000 IDamp=-1.
 Damping current iteration by 5.00D-01
 RMSDP=3.79D-03 MaxDP=7.77D-01              OVMax= 1.66D-01

 Cycle   2  Pass 0  IDiag  1:
 RMSU=  1.89D-03    CP:  1.01D+00
 E= -715.817913310839     Delta-E=       -0.295193029953 Rises=F Damp=T
 DIIS: error= 3.80D-03 at cycle   2 NSaved=   2.
 NSaved= 2 IEnMin= 2 EnMin= -715.817913310839     IErMin= 2 ErrMin= 3.80D-03
 ErrMax= 3.80D-03  0.00D+00 EMaxC= 1.00D-01 BMatC= 2.05D-01 BMatP= 2.82D+00
 IDIUse=3 WtCom= 9.62D-01 WtEn= 3.80D-02
 Coeff-Com: -0.415D-01 0.104D+01
 Coeff-En:   0.000D+00 0.100D+01
 Coeff:     -0.400D-01 0.104D+01
 Gap=     0.333 Goal=   None    Shift=    0.000
 Gap=     0.313 Goal=   None    Shift=    0.000
 RMSDP=1.06D-03 MaxDP=1.44D-01 DE=-2.95D-01 OVMax= 1.15D-01

 Cycle   3  Pass 0  IDiag  1:
 RMSU=  1.01D-03    CP:  9.89D-01  8.38D-01
 E= -716.098810730583     Delta-E=       -0.280897419744 Rises=F Damp=F
 DIIS: error= 4.99D-03 at cycle   3 NSaved=   3.
 NSaved= 3 IEnMin= 3 EnMin= -716.098810730583     IErMin= 2 ErrMin= 3.80D-03
 ErrMax= 4.99D-03  0.00D+00 EMaxC= 1.00D-01 BMatC= 1.15D-01 BMatP= 2.05D-01
 IDIUse=3 WtCom= 9.50D-01 WtEn= 4.99D-02
 Coeff-Com: -0.721D-01 0.455D+00 0.617D+00
 Coeff-En:   0.000D+00 0.000D+00 0.100D+01
 Coeff:     -0.685D-01 0.432D+00 0.636D+00
 Gap=     0.323 Goal=   None    Shift=    0.000
 Gap=     0.291 Goal=   None    Shift=    0.000
 RMSDP=3.68D-04 MaxDP=3.58D-02 DE=-2.81D-01 OVMax= 7.20D-02

 Cycle   4  Pass 0  IDiag  1:
 RMSU=  3.25D-04    CP:  9.94D-01  9.21D-01  9.42D-01
 E= -716.112102222580     Delta-E=       -0.013291491996 Rises=F Damp=F
 DIIS: error= 3.03D-03 at cycle   4 NSaved=   4.
 NSaved= 4 IEnMin= 4 EnMin= -716.112102222580     IErMin= 4 ErrMin= 3.03D-03
 ErrMax= 3.03D-03  0.00D+00 EMaxC= 1.00D-01 BMatC= 4.20D-02 BMatP= 1.15D-01
 IDIUse=3 WtCom= 9.70D-01 WtEn= 3.03D-02
 Coeff-Com: -0.278D-01 0.815D-01 0.397D+00 0.549D+00
 Coeff-En:   0.000D+00 0.000D+00 0.292D+00 0.708D+00
 Coeff:     -0.269D-01 0.791D-01 0.394D+00 0.554D+00
 Gap=     0.314 Goal=   None    Shift=    0.000
 Gap=     0.298 Goal=   None    Shift=    0.000
 RMSDP=1.83D-04 MaxDP=1.50D-02 DE=-1.33D-02 OVMax= 2.00D-02

 Cycle   5  Pass 0  IDiag  1:
 RMSU=  1.07D-04    CP:  9.91D-01  9.09D-01  9.57D-01  5.57D-01
 E= -716.119873983109     Delta-E=       -0.007771760530 Rises=F Damp=F
 DIIS: error= 2.88D-04 at cycle   5 NSaved=   5.
 NSaved= 5 IEnMin= 5 EnMin= -716.119873983109     IErMin= 5 ErrMin= 2.88D-04
 ErrMax= 2.88D-04  0.00D+00 EMaxC= 1.00D-01 BMatC= 5.27D-04 BMatP= 4.20D-02
 IDIUse=3 WtCom= 9.97D-01 WtEn= 2.88D-03
 Coeff-Com: -0.485D-02 0.654D-02 0.111D+00 0.178D+00 0.709D+00
 Coeff-En:   0.000D+00 0.000D+00 0.000D+00 0.000D+00 0.100D+01
 Coeff:     -0.484D-02 0.652D-02 0.111D+00 0.177D+00 0.710D+00
 Gap=     0.311 Goal=   None    Shift=    0.000
 Gap=     0.298 Goal=   None    Shift=    0.000
 RMSDP=4.48D-05 MaxDP=7.85D-03 DE=-7.77D-03 OVMax= 6.37D-03

 Cycle   6  Pass 0  IDiag  1:
 RMSU=  2.96D-05    CP:  9.90D-01  8.97D-01  9.75D-01  6.02D-01  9.26D-01
 E= -716.120004170637     Delta-E=       -0.000130187528 Rises=F Damp=F
 DIIS: error= 1.90D-04 at cycle   6 NSaved=   6.
 NSaved= 6 IEnMin= 6 EnMin= -716.120004170637     IErMin= 6 ErrMin= 1.90D-04
 ErrMax= 1.90D-04  0.00D+00 EMaxC= 1.00D-01 BMatC= 1.56D-04 BMatP= 5.27D-04
 IDIUse=3 WtCom= 9.98D-01 WtEn= 1.90D-03
 Coeff-Com:  0.230D-02-0.890D-02-0.354D-02-0.111D-01 0.302D+00 0.719D+00
 Coeff-En:   0.000D+00 0.000D+00 0.000D+00 0.000D+00 0.000D+00 0.100D+01
 Coeff:      0.230D-02-0.888D-02-0.353D-02-0.110D-01 0.301D+00 0.720D+00
 Gap=     0.313 Goal=   None    Shift=    0.000
 Gap=     0.299 Goal=   None    Shift=    0.000
 RMSDP=2.64D-05 MaxDP=3.64D-03 DE=-1.30D-04 OVMax= 2.49D-03

 Cycle   7  Pass 0  IDiag  1:
 RMSU=  1.82D-05    CP:  9.90D-01  9.01D-01  9.72D-01  6.01D-01  1.09D+00
                    CP:  1.11D+00
 E= -716.120051150744     Delta-E=       -0.000046980106 Rises=F Damp=F
 DIIS: error= 8.50D-05 at cycle   7 NSaved=   7.
 NSaved= 7 IEnMin= 7 EnMin= -716.120051150744     IErMin= 7 ErrMin= 8.50D-05
 ErrMax= 8.50D-05  0.00D+00 EMaxC= 1.00D-01 BMatC= 2.55D-05 BMatP= 1.56D-04
 IDIUse=1 WtCom= 1.00D+00 WtEn= 0.00D+00
 Coeff-Com:  0.185D-02-0.366D-02-0.216D-01-0.504D-01-0.938D-01 0.997D-01
 Coeff-Com:  0.107D+01
 Coeff:      0.185D-02-0.366D-02-0.216D-01-0.504D-01-0.938D-01 0.997D-01
 Coeff:      0.107D+01
 Gap=     0.313 Goal=   None    Shift=    0.000
 Gap=     0.299 Goal=   None    Shift=    0.000
 RMSDP=1.73D-05 MaxDP=1.90D-03 DE=-4.70D-05 OVMax= 3.02D-03

 Cycle   8  Pass 0  IDiag  1:
 RMSU=  8.32D-06    CP:  9.90D-01  8.98D-01  9.73D-01  5.91D-01  1.19D+00
                    CP:  1.33D+00  1.25D+00
 E= -716.120065750301     Delta-E=       -0.000014599558 Rises=F Damp=F
 DIIS: error= 4.82D-05 at cycle   8 NSaved=   8.
 NSaved= 8 IEnMin= 8 EnMin= -716.120065750301     IErMin= 8 ErrMin= 4.82D-05
 ErrMax= 4.82D-05  0.00D+00 EMaxC= 1.00D-01 BMatC= 6.04D-06 BMatP= 2.55D-05
 IDIUse=1 WtCom= 1.00D+00 WtEn= 0.00D+00
 Coeff-Com:  0.290D-03 0.789D-04-0.505D-02-0.173D-01-0.725D-01-0.985D-01
 Coeff-Com:  0.351D+00 0.842D+00
 Coeff:      0.290D-03 0.789D-04-0.505D-02-0.173D-01-0.725D-01-0.985D-01
 Coeff:      0.351D+00 0.842D+00
 Gap=     0.313 Goal=   None    Shift=    0.000
 Gap=     0.299 Goal=   None    Shift=    0.000
 RMSDP=7.82D-06 MaxDP=7.22D-04 DE=-1.46D-05 OVMax= 1.20D-03

 Initial convergence to 1.0D-05 achieved.  Increase integral accuracy.
 Cycle   9  Pass 1  IDiag  1:
 E= -716.120088457527     Delta-E=       -0.000022707226 Rises=F Damp=F
 DIIS: error= 1.25D-04 at cycle   1 NSaved=   1.
 NSaved= 1 IEnMin= 1 EnMin= -716.120088457527     IErMin= 1 ErrMin= 1.25D-04
 ErrMax= 1.25D-04  0.00D+00 EMaxC= 1.00D-01 BMatC= 4.58D-05 BMatP= 4.58D-05
 IDIUse=3 WtCom= 9.99D-01 WtEn= 1.25D-03
 Coeff-Com:  0.100D+01
 Coeff-En:   0.100D+01
 Coeff:      0.100D+01
 Gap=     0.313 Goal=   None    Shift=    0.000
 Gap=     0.299 Goal=   None    Shift=    0.000
 RMSDP=7.82D-06 MaxDP=7.22D-04 DE=-2.27D-05 OVMax= 2.98D-04

 Cycle  10  Pass 1  IDiag  1:
 RMSU=  8.75D-05    CP:  1.00D+00
 E= -716.120094072006     Delta-E=       -0.000005614478 Rises=F Damp=F
 DIIS: error= 1.46D-05 at cycle   2 NSaved=   2.
 NSaved= 2 IEnMin= 2 EnMin= -716.120094072006     IErMin= 2 ErrMin= 1.46D-05
 ErrMax= 1.46D-05  0.00D+00 EMaxC= 1.00D-01 BMatC= 1.79D-06 BMatP= 4.58D-05
 IDIUse=1 WtCom= 1.00D+00 WtEn= 0.00D+00
 Coeff-Com:  0.434D-01 0.957D+00
 Coeff:      0.434D-01 0.957D+00
 Gap=     0.313 Goal=   None    Shift=    0.000
 Gap=     0.299 Goal=   None    Shift=    0.000
 RMSDP=5.43D-06 MaxDP=7.34D-04 DE=-5.61D-06 OVMax= 5.80D-04

 Cycle  11  Pass 1  IDiag  1:
 RMSU=  3.73D-06    CP:  1.00D+00  1.04D+00
 E= -716.120093884368     Delta-E=        0.000000187638 Rises=F Damp=F
 DIIS: error= 2.86D-05 at cycle   3 NSaved=   3.
 NSaved= 3 IEnMin= 2 EnMin= -716.120094072006     IErMin= 2 ErrMin= 1.46D-05
 ErrMax= 2.86D-05  0.00D+00 EMaxC= 1.00D-01 BMatC= 3.99D-06 BMatP= 1.79D-06
 IDIUse=1 WtCom= 1.00D+00 WtEn= 0.00D+00
 Coeff-Com: -0.111D-01 0.610D+00 0.401D+00
 Coeff:     -0.111D-01 0.610D+00 0.401D+00
 Gap=     0.313 Goal=   None    Shift=    0.000
 Gap=     0.299 Goal=   None    Shift=    0.000
 RMSDP=2.03D-06 MaxDP=2.83D-04 DE= 1.88D-07 OVMax= 1.55D-04

 Cycle  12  Pass 1  IDiag  1:
 RMSU=  1.22D-06    CP:  1.00D+00  1.04D+00  5.93D-01
 E= -716.120094628182     Delta-E=       -0.000000743814 Rises=F Damp=F
 DIIS: error= 3.81D-06 at cycle   4 NSaved=   4.
 NSaved= 4 IEnMin= 4 EnMin= -716.120094628182     IErMin= 4 ErrMin= 3.81D-06
 ErrMax= 3.81D-06  0.00D+00 EMaxC= 1.00D-01 BMatC= 7.16D-08 BMatP= 1.79D-06
 IDIUse=1 WtCom= 1.00D+00 WtEn= 0.00D+00
 Coeff-Com: -0.540D-02 0.153D+00 0.772D-01 0.775D+00
 Coeff:     -0.540D-02 0.153D+00 0.772D-01 0.775D+00
 Gap=     0.313 Goal=   None    Shift=    0.000
 Gap=     0.299 Goal=   None    Shift=    0.000
 RMSDP=5.17D-07 MaxDP=4.93D-05 DE=-7.44D-07 OVMax= 1.21D-04

 Cycle  13  Pass 1  IDiag  1:
 RMSU=  3.43D-07    CP:  1.00D+00  1.04D+00  5.90D-01  1.31D+00
 E= -716.120094664915     Delta-E=       -0.000000036734 Rises=F Damp=F
 DIIS: error= 5.87D-06 at cycle   5 NSaved=   5.
 NSaved= 5 IEnMin= 5 EnMin= -716.120094664915     IErMin= 4 ErrMin= 3.81D-06
 ErrMax= 5.87D-06  0.00D+00 EMaxC= 1.00D-01 BMatC= 6.95D-08 BMatP= 7.16D-08
 IDIUse=1 WtCom= 1.00D+00 WtEn= 0.00D+00
 Coeff-Com:  0.613D-02-0.384D+00-0.331D+00 0.490D+00 0.122D+01
 Coeff:      0.613D-02-0.384D+00-0.331D+00 0.490D+00 0.122D+01
 Gap=     0.313 Goal=   None    Shift=    0.000
 Gap=     0.299 Goal=   None    Shift=    0.000
 RMSDP=9.42D-07 MaxDP=7.50D-05 DE=-3.67D-08 OVMax= 1.63D-04

 Cycle  14  Pass 1  IDiag  1:
 RMSU=  4.71D-07    CP:  1.00D+00  1.04D+00  6.25D-01  1.92D+00  1.85D+00
 E= -716.120094702742     Delta-E=       -0.000000037827 Rises=F Damp=F
 DIIS: error= 6.19D-07 at cycle   6 NSaved=   6.
 NSaved= 6 IEnMin= 6 EnMin= -716.120094702742     IErMin= 6 ErrMin= 6.19D-07
 ErrMax= 6.19D-07  0.00D+00 EMaxC= 1.00D-01 BMatC= 2.82D-09 BMatP= 6.95D-08
 IDIUse=1 WtCom= 1.00D+00 WtEn= 0.00D+00
 Coeff-Com:  0.275D-02-0.155D+00-0.133D+00 0.130D+00 0.426D+00 0.729D+00
 Coeff:      0.275D-02-0.155D+00-0.133D+00 0.130D+00 0.426D+00 0.729D+00
 Gap=     0.313 Goal=   None    Shift=    0.000
 Gap=     0.299 Goal=   None    Shift=    0.000
 RMSDP=1.74D-07 MaxDP=2.61D-05 DE=-3.78D-08 OVMax= 2.79D-05

 Cycle  15  Pass 1  IDiag  1:
 RMSU=  9.77D-08    CP:  1.00D+00  1.04D+00  6.05D-01  1.98D+00  2.05D+00
                    CP:  1.05D+00
 E= -716.120094703959     Delta-E=       -0.000000001217 Rises=F Damp=F
 DIIS: error= 2.71D-07 at cycle   7 NSaved=   7.
 NSaved= 7 IEnMin= 7 EnMin= -716.120094703959     IErMin= 7 ErrMin= 2.71D-07
 ErrMax= 2.71D-07  0.00D+00 EMaxC= 1.00D-01 BMatC= 5.75D-10 BMatP= 2.82D-09
 IDIUse=1 WtCom= 1.00D+00 WtEn= 0.00D+00
 Coeff-Com:  0.649D-04 0.349D-02 0.200D-02-0.289D-01-0.490D-01 0.312D+00
 Coeff-Com:  0.761D+00
 Coeff:      0.649D-04 0.349D-02 0.200D-02-0.289D-01-0.490D-01 0.312D+00
 Coeff:      0.761D+00
 Gap=     0.313 Goal=   None    Shift=    0.000
 Gap=     0.299 Goal=   None    Shift=    0.000
 RMSDP=6.52D-08 MaxDP=6.09D-06 DE=-1.22D-09 OVMax= 7.96D-06

 Cycle  16  Pass 1  IDiag  1:
 RMSU=  3.26D-08    CP:  1.00D+00  1.04D+00  6.05D-01  1.98D+00  2.09D+00
                    CP:  1.16D+00  9.52D-01
 E= -716.120094704166     Delta-E=       -0.000000000207 Rises=F Damp=F
 DIIS: error= 7.78D-08 at cycle   8 NSaved=   8.
 NSaved= 8 IEnMin= 8 EnMin= -716.120094704166     IErMin= 8 ErrMin= 7.78D-08
 ErrMax= 7.78D-08  0.00D+00 EMaxC= 1.00D-01 BMatC= 3.11D-11 BMatP= 5.75D-10
 IDIUse=1 WtCom= 1.00D+00 WtEn= 0.00D+00
 Coeff-Com: -0.208D-03 0.137D-01 0.114D-01-0.177D-01-0.498D-01 0.316D-01
 Coeff-Com:  0.208D+00 0.803D+00
 Coeff:     -0.208D-03 0.137D-01 0.114D-01-0.177D-01-0.498D-01 0.316D-01
 Coeff:      0.208D+00 0.803D+00
 Gap=     0.313 Goal=   None    Shift=    0.000
 Gap=     0.299 Goal=   None    Shift=    0.000
 RMSDP=1.90D-08 MaxDP=1.36D-06 DE=-2.07D-10 OVMax= 4.52D-06

 Cycle  17  Pass 1  IDiag  1:
 RMSU=  1.17D-08    CP:  1.00D+00  1.04D+00  6.04D-01  1.98D+00  2.09D+00
                    CP:  1.16D+00  1.02D+00  1.26D+00
 E= -716.120094704178     Delta-E=       -0.000000000012 Rises=F Damp=F
 DIIS: error= 5.12D-08 at cycle   9 NSaved=   9.
 NSaved= 9 IEnMin= 9 EnMin= -716.120094704178     IErMin= 9 ErrMin= 5.12D-08
 ErrMax= 5.12D-08  0.00D+00 EMaxC= 1.00D-01 BMatC= 8.19D-12 BMatP= 3.11D-11
 IDIUse=1 WtCom= 1.00D+00 WtEn= 0.00D+00
 Coeff-Com: -0.627D-04 0.307D-02 0.266D-02-0.751D-03-0.639D-02-0.347D-01
 Coeff-Com: -0.522D-01 0.211D+00 0.878D+00
 Coeff:     -0.627D-04 0.307D-02 0.266D-02-0.751D-03-0.639D-02-0.347D-01
 Coeff:     -0.522D-01 0.211D+00 0.878D+00
 Gap=     0.313 Goal=   None    Shift=    0.000
 Gap=     0.299 Goal=   None    Shift=    0.000
 RMSDP=1.08D-08 MaxDP=7.71D-07 DE=-1.21D-11 OVMax= 3.82D-06

 Cycle  18  Pass 1  IDiag  1:
 RMSU=  4.51D-09    CP:  1.00D+00  1.04D+00  6.04D-01  1.98D+00  2.08D+00
                    CP:  1.17D+00  1.04D+00  1.48D+00  1.40D+00
 E= -716.120094704192     Delta-E=       -0.000000000014 Rises=F Damp=F
 DIIS: error= 4.16D-08 at cycle  10 NSaved=  10.
 NSaved=10 IEnMin=10 EnMin= -716.120094704192     IErMin=10 ErrMin= 4.16D-08
 ErrMax= 4.16D-08  0.00D+00 EMaxC= 1.00D-01 BMatC= 2.92D-12 BMatP= 8.19D-12
 IDIUse=1 WtCom= 1.00D+00 WtEn= 0.00D+00
 Coeff-Com:  0.666D-04-0.460D-02-0.380D-02 0.640D-02 0.180D-01-0.172D-01
 Coeff-Com: -0.844D-01-0.272D+00 0.140D+00 0.122D+01
 Coeff:      0.666D-04-0.460D-02-0.380D-02 0.640D-02 0.180D-01-0.172D-01
 Coeff:     -0.844D-01-0.272D+00 0.140D+00 0.122D+01
 Gap=     0.313 Goal=   None    Shift=    0.000
 Gap=     0.299 Goal=   None    Shift=    0.000
 RMSDP=1.03D-08 MaxDP=9.42D-07 DE=-1.39D-11 OVMax= 4.54D-06

 Cycle  19  Pass 1  IDiag  1:
 RMSU=  3.47D-09    CP:  1.00D+00  1.04D+00  6.04D-01  1.97D+00  2.07D+00
                    CP:  1.16D+00  1.06D+00  1.63D+00  1.89D+00  1.72D+00
 E= -716.120094704207     Delta-E=       -0.000000000015 Rises=F Damp=F
 DIIS: error= 2.06D-08 at cycle  11 NSaved=  11.
 NSaved=11 IEnMin=11 EnMin= -716.120094704207     IErMin=11 ErrMin= 2.06D-08
 ErrMax= 2.06D-08  0.00D+00 EMaxC= 1.00D-01 BMatC= 7.75D-13 BMatP= 2.92D-12
 IDIUse=1 WtCom= 1.00D+00 WtEn= 0.00D+00
 Coeff-Com:  0.256D-04-0.138D-02-0.114D-02 0.657D-03 0.380D-02 0.854D-02
 Coeff-Com:  0.814D-02-0.862D-01-0.246D+00 0.109D+00 0.120D+01
 Coeff:      0.256D-04-0.138D-02-0.114D-02 0.657D-03 0.380D-02 0.854D-02
 Coeff:      0.814D-02-0.862D-01-0.246D+00 0.109D+00 0.120D+01
 Gap=     0.313 Goal=   None    Shift=    0.000
 Gap=     0.299 Goal=   None    Shift=    0.000
 RMSDP=4.50D-09 MaxDP=5.61D-07 DE=-1.48D-11 OVMax= 2.92D-06

 SCF Done:  E(UM062X) =  -716.120094704     A.U. after   19 cycles
            NFock= 19  Conv=0.45D-08     -V/T= 2.0060
 <Sx>= 0.0000 <Sy>= 0.0000 <Sz>= 0.5000 <S**2>= 0.7554 S= 0.5027
 <L.S>=  0.00000000000    
 KE= 7.118397629682D+02 PE=-4.300854548722D+03 EE= 1.555234971167D+03
 Annihilation of the first spin contaminant:
 S**2 before annihilation     0.7554,   after     0.7500
 Leave Link  502 at Thu Jan  9 15:59:44 2025, MaxMem=  4026531840 cpu:           17102.4 elap:             855.3
 (Enter /usr/local/intel/g16/l601.exe)
 Copying SCF densities to generalized density rwf, IOpCl= 1 IROHF=0.

 **********************************************************************

            Population analysis using the SCF Density.

 **********************************************************************

 Orbital symmetries:
 Alpha Orbitals:
       Occupied  (A) (A) (A) (A) (A) (A) (A) (A) (A) (A) (A) (A)
                 (A) (A) (A) (A) (A) (A) (A) (A) (A) (A) (A) (A)
                 (A) (A) (A) (A) (A) (A) (A) (A) (A) (A) (A) (A)
                 (A) (A) (A) (A) (A) (A) (A) (A) (A) (A) (A) (A)
                 (A) (A) (A) (A) (A) (A) (A) (A) (A) (A) (A) (A)
                 (A) (A) (A) (A)
       Virtual   (A) (A) (A) (A) (A) (A) (A) (A) (A) (A) (A) (A)
                 (A) (A) (A) (A) (A) (A) (A) (A) (A) (A) (A) (A)
                 (A) (A) (A) (A) (A) (A) (A) (A) (A) (A) (A) (A)
                 (A) (A) (A) (A) (A) (A) (A) (A) (A) (A) (A) (A)
                 (A) (A) (A) (A) (A) (A) (A) (A) (A) (A) (A) (A)
                 (A) (A) (A) (A) (A) (A) (A) (A) (A) (A) (A) (A)
                 (A) (A) (A) (A) (A) (A) (A) (A) (A) (A) (A) (A)
                 (A) (A) (A) (A) (A) (A) (A) (A) (A) (A) (A) (A)
                 (A) (A) (A) (A) (A) (A) (A) (A) (A) (A) (A) (A)
                 (A) (A) (A) (A) (A) (A) (A) (A) (A) (A) (A) (A)
                 (A) (A) (A) (A) (A) (A) (A) (A) (A) (A) (A) (A)
                 (A) (A) (A) (A) (A) (A) (A) (A) (A) (A) (A) (A)
                 (A) (A) (A) (A) (A) (A) (A) (A) (A) (A) (A) (A)
                 (A) (A) (A) (A) (A) (A) (A) (A) (A) (A) (A) (A)
                 (A) (A) (A) (A) (A) (A) (A) (A) (A) (A) (A) (A)
                 (A) (A) (A) (A) (A) (A) (A) (A) (A) (A) (A) (A)
                 (A) (A) (A) (A) (A) (A) (A) (A) (A) (A) (A) (A)
                 (A) (A) (A) (A) (A) (A) (A) (A) (A) (A) (A) (A)
                 (A) (A) (A) (A) (A) (A) (A) (A) (A) (A) (A) (A)
                 (A) (A) (A) (A) (A) (A) (A) (A) (A) (A) (A) (A)
                 (A) (A) (A) (A) (A) (A) (A) (A) (A) (A) (A) (A)
                 (A) (A) (A) (A) (A) (A) (A) (A) (A) (A) (A) (A)
                 (A) (A) (A) (A) (A) (A) (A) (A) (A) (A) (A) (A)
                 (A) (A) (A) (A) (A) (A) (A) (A) (A) (A) (A) (A)
                 (A) (A) (A) (A) (A) (A) (A) (A) (A) (A) (A) (A)
                 (A) (A) (A) (A) (A) (A) (A) (A) (A) (A) (A) (A)
                 (A) (A) (A) (A) (A) (A) (A) (A) (A) (A) (A) (A)
                 (A) (A) (A) (A) (A) (A) (A) (A) (A) (A) (A) (A)
                 (A) (A) (A) (A) (A) (A) (A) (A) (A) (A) (A) (A)
                 (A) (A) (A) (A) (A) (A) (A) (A) (A) (A) (A) (A)
                 (A) (A) (A) (A) (A) (A) (A) (A) (A) (A) (A) (A)
                 (A) (A) (A) (A) (A) (A) (A) (A) (A) (A) (A) (A)
                 (A) (A) (A) (A) (A) (A) (A) (A) (A) (A) (A) (A)
                 (A) (A) (A) (A) (A) (A) (A) (A) (A) (A) (A) (A)
                 (A) (A) (A) (A) (A) (A) (A) (A) (A) (A) (A) (A)
                 (A) (A) (A) (A) (A) (A) (A) (A) (A) (A) (A) (A)
                 (A) (A) (A) (A) (A) (A) (A) (A) (A) (A) (A) (A)
                 (A) (A) (A) (A) (A) (A) (A) (A) (A) (A) (A) (A)
                 (A) (A) (A) (A) (A) (A) (A) (A) (A) (A) (A) (A)
                 (A) (A) (A) (A) (A) (A) (A) (A) (A) (A) (A) (A)
                 (A) (A) (A) (A) (A) (A) (A) (A) (A) (A) (A) (A)
                 (A) (A) (A) (A) (A) (A) (A) (A) (A) (A) (A) (A)
                 (A) (A) (A) (A) (A) (A) (A) (A) (A) (A) (A) (A)
                 (A) (A) (A) (A) (A) (A) (A) (A) (A) (A) (A) (A)
                 (A) (A) (A) (A) (A) (A) (A) (A) (A) (A) (A) (A)
                 (A) (A) (A) (A) (A) (A) (A) (A) (A) (A) (A) (A)
                 (A) (A) (A) (A) (A) (A) (A) (A) (A) (A) (A) (A)
                 (A) (A) (A) (A) (A) (A) (A) (A) (A) (A) (A) (A)
                 (A) (A) (A) (A) (A) (A) (A) (A) (A) (A) (A) (A)
 Beta  Orbitals:
       Occupied  (A) (A) (A) (A) (A) (A) (A) (A) (A) (A) (A) (A)
                 (A) (A) (A) (A) (A) (A) (A) (A) (A) (A) (A) (A)
                 (A) (A) (A) (A) (A) (A) (A) (A) (A) (A) (A) (A)
                 (A) (A) (A) (A) (A) (A) (A) (A) (A) (A) (A) (A)
                 (A) (A) (A) (A) (A) (A) (A) (A) (A) (A) (A) (A)
                 (A) (A) (A)
       Virtual   (A) (A) (A) (A) (A) (A) (A) (A) (A) (A) (A) (A)
                 (A) (A) (A) (A) (A) (A) (A) (A) (A) (A) (A) (A)
                 (A) (A) (A) (A) (A) (A) (A) (A) (A) (A) (A) (A)
                 (A) (A) (A) (A) (A) (A) (A) (A) (A) (A) (A) (A)
                 (A) (A) (A) (A) (A) (A) (A) (A) (A) (A) (A) (A)
                 (A) (A) (A) (A) (A) (A) (A) (A) (A) (A) (A) (A)
                 (A) (A) (A) (A) (A) (A) (A) (A) (A) (A) (A) (A)
                 (A) (A) (A) (A) (A) (A) (A) (A) (A) (A) (A) (A)
                 (A) (A) (A) (A) (A) (A) (A) (A) (A) (A) (A) (A)
                 (A) (A) (A) (A) (A) (A) (A) (A) (A) (A) (A) (A)
                 (A) (A) (A) (A) (A) (A) (A) (A) (A) (A) (A) (A)
                 (A) (A) (A) (A) (A) (A) (A) (A) (A) (A) (A) (A)
                 (A) (A) (A) (A) (A) (A) (A) (A) (A) (A) (A) (A)
                 (A) (A) (A) (A) (A) (A) (A) (A) (A) (A) (A) (A)
                 (A) (A) (A) (A) (A) (A) (A) (A) (A) (A) (A) (A)
                 (A) (A) (A) (A) (A) (A) (A) (A) (A) (A) (A) (A)
                 (A) (A) (A) (A) (A) (A) (A) (A) (A) (A) (A) (A)
                 (A) (A) (A) (A) (A) (A) (A) (A) (A) (A) (A) (A)
                 (A) (A) (A) (A) (A) (A) (A) (A) (A) (A) (A) (A)
                 (A) (A) (A) (A) (A) (A) (A) (A) (A) (A) (A) (A)
                 (A) (A) (A) (A) (A) (A) (A) (A) (A) (A) (A) (A)
                 (A) (A) (A) (A) (A) (A) (A) (A) (A) (A) (A) (A)
                 (A) (A) (A) (A) (A) (A) (A) (A) (A) (A) (A) (A)
                 (A) (A) (A) (A) (A) (A) (A) (A) (A) (A) (A) (A)
                 (A) (A) (A) (A) (A) (A) (A) (A) (A) (A) (A) (A)
                 (A) (A) (A) (A) (A) (A) (A) (A) (A) (A) (A) (A)
                 (A) (A) (A) (A) (A) (A) (A) (A) (A) (A) (A) (A)
                 (A) (A) (A) (A) (A) (A) (A) (A) (A) (A) (A) (A)
                 (A) (A) (A) (A) (A) (A) (A) (A) (A) (A) (A) (A)
                 (A) (A) (A) (A) (A) (A) (A) (A) (A) (A) (A) (A)
                 (A) (A) (A) (A) (A) (A) (A) (A) (A) (A) (A) (A)
                 (A) (A) (A) (A) (A) (A) (A) (A) (A) (A) (A) (A)
                 (A) (A) (A) (A) (A) (A) (A) (A) (A) (A) (A) (A)
                 (A) (A) (A) (A) (A) (A) (A) (A) (A) (A) (A) (A)
                 (A) (A) (A) (A) (A) (A) (A) (A) (A) (A) (A) (A)
                 (A) (A) (A) (A) (A) (A) (A) (A) (A) (A) (A) (A)
                 (A) (A) (A) (A) (A) (A) (A) (A) (A) (A) (A) (A)
                 (A) (A) (A) (A) (A) (A) (A) (A) (A) (A) (A) (A)
                 (A) (A) (A) (A) (A) (A) (A) (A) (A) (A) (A) (A)
                 (A) (A) (A) (A) (A) (A) (A) (A) (A) (A) (A) (A)
                 (A) (A) (A) (A) (A) (A) (A) (A) (A) (A) (A) (A)
                 (A) (A) (A) (A) (A) (A) (A) (A) (A) (A) (A) (A)
                 (A) (A) (A) (A) (A) (A) (A) (A) (A) (A) (A) (A)
                 (A) (A) (A) (A) (A) (A) (A) (A) (A) (A) (A) (A)
                 (A) (A) (A) (A) (A) (A) (A) (A) (A) (A) (A) (A)
                 (A) (A) (A) (A) (A) (A) (A) (A) (A) (A) (A) (A)
                 (A) (A) (A) (A) (A) (A) (A) (A) (A) (A) (A) (A)
                 (A) (A) (A) (A) (A) (A) (A) (A) (A) (A) (A) (A)
                 (A) (A) (A) (A) (A) (A) (A) (A) (A) (A) (A) (A)
                 (A)
 The electronic state is 2-A.
 Alpha  occ. eigenvalues --  -19.63016 -19.62737 -14.83539 -10.59913 -10.59411
 Alpha  occ. eigenvalues --  -10.59244 -10.54405 -10.54217 -10.54055 -10.53977
 Alpha  occ. eigenvalues --  -10.53551 -10.53453 -10.53318 -10.52017 -10.51964
 Alpha  occ. eigenvalues --  -10.51820  -1.19435  -1.13874  -0.97680  -0.93115
 Alpha  occ. eigenvalues --   -0.86657  -0.85432  -0.84822  -0.84507  -0.81012
 Alpha  occ. eigenvalues --   -0.75166  -0.74175  -0.70861  -0.69660  -0.68300
[...]
 21,0.00009576,-0.00005988,-0.00001789,0.00000155,-0.00000395,0.0001374
 1,0.00015815,0.00033953,-0.00001068,-0.00073729,0.00013435,-0.00026625
 ,-0.00004773,0.00011437,0.00007610,0.00005841,-0.00000488,-0.00006330,
 0.00006730,-0.00002375,-0.00001099,-0.00003079,0.00011993,0.00102316,-
 0.00024788,-0.00031874,0.00001479,0.00012589,0.00132716,-0.00058670,0.
 00040749,0.00113589,0.00212703,-0.01759849,0.04282904,0.01852150,-0.30
 135549,0.00000674,0.00004329,0.00000959,-0.00000076,0.00001794,0.00001
 208,-0.00002824,-0.00001662,-0.00001554,-0.00001737,-0.00003004,-0.000
 01009,0.00003124,0.00000861,0.00003221,-0.00012056,-0.00001474,0.00003
 966,0.00000462,0.00024257,0.00006513,-0.00017356,0.00237152,-0.0000014
 9,-0.00010633,0.00021504,0.00017719,0.00007020,-0.00004710,-0.00001004
 ,-0.00002202,0.00008771,0.00005956,0.00007186,0.00003955,0.00000419,-0
 .00068691,-0.00030773,0.00063192,0.00008977,-0.00000424,0.00049664,-0.
 04586561,-0.02259753,0.33118216,-0.00022763,-0.00050598,-0.00014892,0.
 00158389,-0.00009288,-0.00005947,0.00051223,0.00028452,0.00039587,-0.0
 0507662,-0.00132864,-0.00040001,0.00001823,-0.00003502,-0.00009934,-0.
 00004318,-0.00010956,0.00008955,-0.00066973,-0.00047326,0.00050298,-0.
 00013572,0.00036094,-0.00021747,-0.00004034,-0.00006013,0.00003047,0.0
 0004491,0.00001230,0.00001263,0.00000971,0.00003765,0.00000307,0.00003
 228,0.00001115,0.00000649,-0.00007276,-0.00011360,-0.00007101,0.000005
 20,0.00008108,-0.00013248,0.00049964,0.00014186,0.00013931,0.00021532,
 -0.00006370,0.00001300,-0.00000345,0.00004064,-0.00004694,-0.00001783,
 0.00000564,0.00000244,0.00009283,0.00003652,0.00011907,-0.00047030,0.0
 0015689,0.00095540,-0.00123810,0.00429550,-0.00250262,-0.02080598,-0.0
 0775376,0.00334286,-0.28204648,-0.07182745,0.03371714,-0.00000196,-0.0
 0003250,0.00000911,-0.00001125,-0.00001231,-0.00004159,0.00001538,-0.0
 0000579,0.00000927,0.00000348,-0.00001364,-0.00001505,-0.00002534,-0.0
 0001901,0.00001466,0.00000675,0.00001142,-0.00003876,0.00004360,0.0000
 6382,-0.00008120,-0.00007623,-0.00003586,-0.00009039,0.00001347,-0.000
 05777,-0.00001158,-0.00004133,0.00020594,-0.00002534,-0.00005516,0.001
 30570,0.00179915,0.00010352,0.00032289,0.00013999,0.00038489,0.0000228
 4,-0.00009973,-0.00138397,-0.00044846,0.00015774,-0.00473072,-0.001153
 19,0.00063807,0.31028907,-0.00280452,-0.00166529,-0.00092573,0.0022446
 5,-0.00501462,-0.00177985,0.00032333,-0.00092904,0.00010398,-0.0286152
 8,-0.00758650,0.00458596,-0.00002891,0.00014864,-0.00001004,-0.0000933
 9,0.00009187,0.00008795,-0.00047140,0.00115847,0.00050911,-0.00132254,
 0.00108203,-0.00021010,0.00005643,0.00003286,0.00000084,-0.00013614,0.
 00000933,0.00002242,0.00002212,0.00001293,-0.00003377,-0.00006406,0.00
 003117,-0.00009645,0.00011847,-0.00005420,-0.00019318,-0.00000108,0.00
 007294,0.00029456,0.00066961,-0.00047848,0.00031058,0.00025649,0.00017
 250,-0.00003967,0.00000413,0.00001085,-0.00001993,0.00000136,-0.000005
 02,0.00000124,0.00013487,-0.00005154,0.00018158,0.00005655,-0.00033515
 ,-0.00017734,0.00280377,-0.00373513,0.00179942,0.02386830,0.00592039,-
 0.00488222,-0.07009317,-0.06804609,0.01054922,-0.00003209,-0.00000635,
 0.00005190,-0.00001552,0.00002694,-0.00001778,0.00004219,-0.00000277,0
 .00002310,0.00001890,0.00003781,-0.00006500,-0.00002512,0.00001807,0.0
 0000693,0.00001364,-0.00000008,0.00001768,0.00006554,0.00001112,-0.000
 13316,0.00000197,-0.00005149,-0.00014816,0.00000461,-0.00008596,0.0000
 3514,0.00006757,-0.00006847,-0.00000805,0.00064397,0.00032196,-0.00078
 932,0.00016800,0.00024594,0.00018745,-0.00012118,-0.00012469,0.0000110
 5,0.00145630,0.00052176,-0.00011576,-0.00238966,-0.00128179,0.00041849
 ,0.07521949,0.07604495,-0.00119244,-0.00086207,-0.00009506,0.00062091,
 -0.00256742,-0.00075221,0.00037457,0.00007961,0.00000190,-0.01434962,-
 0.00389756,0.00100711,-0.00001414,0.00000904,-0.00008789,-0.00004139,-
 0.00001535,0.00009764,-0.00029296,0.00037667,0.00022873,0.00026275,0.0
 0048517,-0.00010990,-0.00000696,-0.00003035,0.00003193,0.00001691,-0.0
 0000086,0.00001581,0.00001710,0.00003476,-0.00000281,0.00001125,0.0000
 0989,-0.00002975,-0.00007371,0.00007967,-0.00011589,0.00005397,0.00015
 594,0.00020884,-0.00000315,0.00026942,0.00019461,-0.00006246,-0.000006
 17,-0.00007389,-0.00001633,0.00003513,-0.00001399,-0.00000835,-0.00004
 264,-0.00004848,0.00000404,0.00004062,-0.00059847,0.00023538,-0.000874
 61,-0.00080461,-0.00074114,0.00207927,-0.00052834,-0.01435579,-0.00436
 764,0.00126486,0.03598724,0.01187758,-0.05224860,-0.00000975,-0.000030
 24,0.00000377,-0.00000206,-0.00000475,-0.00001308,0.00002350,-0.000004
 63,0.00000514,-0.00000511,-0.00002279,-0.00001368,0.00001712,0.0000125
 8,0.00002914,-0.00005979,0.00002677,0.00003416,-0.00001276,0.00008513,
 -0.00001563,-0.00000304,0.00023815,0.00024411,-0.00000611,0.00020195,0
 .00007764,0.00003776,0.00014217,0.00007676,0.00142837,-0.00092174,-0.0
 0158911,0.00002052,0.00016571,0.00006358,-0.00039003,-0.00001949,0.000
 39294,-0.00074882,-0.00009116,0.00061217,0.02997842,0.00902841,-0.0029
 7140,-0.03823136,-0.00976171,0.05528410,0.00129528,-0.00050764,0.00015
 083,-0.00085919,0.00091010,-0.00008649,-0.00766424,0.00131149,0.003323
 28,-0.00304650,0.00110389,-0.00306751,0.00017837,-0.00203227,-0.001572
 61,0.00011954,-0.00078294,0.00056921,0.00031011,0.00032580,-0.00040520
 ,0.00048837,0.00097095,0.00091619,-0.00081851,-0.00045102,0.00037696,0
 .00014454,0.00006688,0.00000616,0.00004614,0.00016054,0.00003935,0.000
 07501,-0.00003315,0.00004134,-0.00007651,-0.00014009,0.00008471,-0.000
 07533,0.00007928,0.00021705,0.00012500,-0.00011935,0.00002905,-0.00025
 569,0.00039528,-0.00028234,-0.00011993,0.00022169,-0.00022737,-0.00014
 324,0.00009089,-0.00008198,-0.00007918,-0.00004690,0.00000324,-0.00001
 750,-0.00013951,-0.00001659,-0.00923716,-0.04328107,-0.02272529,-0.092
 00782,-0.03266345,-0.00859419,0.00427441,0.02120705,0.01261667,0.00003
 107,-0.00009083,-0.00005168,0.00000277,-0.00012350,-0.00014380,-0.0000
 0898,-0.00002488,0.00004073,-0.00000824,-0.00009937,0.00002421,-0.0000
 0863,-0.00007779,0.00011789,0.00002333,0.00005653,-0.00000801,0.000021
 61,0.00011164,-0.00003381,-0.00005224,-0.00001094,0.00000811,0.0000634
 8,0.00002204,-0.00004705,0.00005058,0.00002289,-0.00000342,0.00009294,
 0.00006343,-0.00001820,-0.00000908,0.00002995,0.00003441,0.00229201,0.
 00036374,-0.00081872,0.00287395,0.00050992,-0.00075331,0.00050772,-0.0
 0093240,0.00093694,0.00296840,-0.00029585,0.00065923,0.57065941,-0.000
 73972,-0.00075709,-0.00019714,0.00074504,0.00133536,-0.00005655,-0.002
 60582,0.00143832,0.00196702,0.00747867,-0.00068737,0.00646663,0.000073
 85,-0.00089971,-0.00089377,0.00010833,-0.00027808,-0.00007218,-0.00066
 418,-0.00059374,0.00029835,-0.00091953,-0.00220258,-0.00218467,-0.0003
 6508,-0.00026512,0.00020569,-0.00011057,0.00005584,0.00002501,0.000028
 22,-0.00020614,0.00028473,-0.00025693,-0.00000160,-0.00004412,0.000064
 12,0.00008843,0.00020338,0.00026859,-0.00029585,-0.00039708,-0.0000302
 6,0.00010139,0.00002119,0.00040745,-0.00099502,0.00057530,-0.00016372,
 0.00004400,-0.00009162,-0.00015807,-0.00001437,-0.00005871,0.00027975,
 -0.00007519,-0.00004535,-0.00021014,-0.00008705,-0.00020885,-0.0100291
 5,-0.02405618,-0.01231808,0.00489156,-0.18944343,-0.08061371,-0.005776
 07,-0.04570887,-0.02415669,0.00001520,0.00003845,0.00009669,-0.0000484
 3,-0.00003269,-0.00017322,-0.00000773,-0.00007133,0.00001725,0.0000801
 7,0.00005338,-0.00004256,-0.00011376,-0.00005457,0.00009076,0.00012196
 ,0.00000806,-0.00000492,-0.00006396,-0.00001873,-0.00003567,-0.0000535
 4,0.00010259,-0.00006735,-0.00000625,-0.00014763,0.00018097,0.00004079
 ,0.00000098,0.00007870,-0.00004193,0.00001296,0.00013747,0.00014766,-0
 .00004294,-0.00015356,0.00168589,0.00062128,0.00009340,0.00029528,0.00
 120802,-0.00023507,-0.00209684,0.00254756,-0.00069742,-0.00013653,0.00
 329475,-0.00103996,0.16885714,0.33878244,0.00014968,-0.00014483,0.0000
 9368,-0.00017431,-0.00001423,0.00014251,0.00069133,0.00092257,0.000211
 10,-0.00058697,0.00080048,0.00083478,0.00013706,-0.00007129,0.00005529
 ,0.00048660,0.00066049,-0.00064551,-0.00033640,0.00079910,-0.00079863,
 -0.00012318,-0.00016990,-0.00000763,-0.00000741,-0.00001412,0.00002578
 ,0.00002361,-0.00003570,-0.00000545,-0.00028134,-0.00034694,0.00078287
 ,-0.00022844,-0.00016044,0.00005983,0.00025722,-0.00023979,0.00082421,
 0.00014973,-0.00024992,0.00037689,0.00002863,-0.00002881,-0.00003827,-
 0.00001351,0.00002117,0.00005880,-0.00031740,-0.00019510,0.00036224,-0
 .00013651,-0.00008589,-0.00003928,0.00010148,-0.00016548,-0.00005757,-
 0.00006179,-0.00022429,0.00022575,-0.00107205,-0.00067760,0.00265207,0
 .01253053,-0.07320377,-0.11533046,0.00012363,0.00240398,0.00563095,0.0
 0002862,0.00002228,-0.00002550,0.00001470,0.00004342,-0.00000125,-0.00
 006137,-0.00019098,-0.00011460,0.00002248,-0.00001652,-0.00000100,-0.0
 0002490,-0.00003424,0.00006179,0.00000521,0.00002659,0.00000138,-0.000
 01861,0.00003638,-0.00000824,-0.00004484,0.00002339,0.00003175,0.00000
 224,-0.00002794,0.00005868,0.00017181,-0.00006080,0.00000701,-0.000068
 25,0.00008612,-0.00007763,-0.00002418,0.00003771,0.00000946,-0.0010199
 1,0.00019850,0.00136190,0.00058983,0.00036375,-0.00026842,0.00091961,-
 0.00111104,0.00291213,0.00025862,0.00053923,-0.00070365,-0.06247536,0.
 11748573,0.14305247,0.00020543,-0.00008565,-0.00001985,-0.00018525,-0.
 00006628,-0.00009399,0.00100492,0.00091819,0.00041261,0.00034350,-0.00
 067661,0.00004088,-0.00010966,0.00001816,-0.00006749,-0.00059299,-0.00
 050877,0.00005905,0.00002450,0.00028031,0.00036661,-0.00003939,-0.0000
 3786,-0.00000879,-0.00005431,-0.00009696,-0.00003224,0.00009301,0.0000
 0790,0.00004552,-0.00088384,-0.00105098,-0.00148552,0.00003875,0.00000
 181,0.00003950,0.00010365,0.00073839,0.00036806,0.00000223,-0.00005332
 ,0.00006815,0.00003900,-0.00003300,-0.00002647,-0.00000499,0.00007667,
 0.00006569,0.00024782,0.00015770,-0.00037047,0.00007302,0.00005012,0.0
 0011954,0.00004128,-0.00002571,-0.00004368,0.00006603,0.00008377,0.000
 08846,-0.00545450,-0.00577452,0.03181296,-0.06025163,-0.00610695,0.038
 87636,0.00350628,0.00553750,-0.02212802,-0.00000912,0.00001892,0.00002
 425,-0.00000925,-0.00004986,-0.00003386,0.00003631,0.00014732,0.000098
 20,-0.00005292,-0.00008555,-0.00003423,-0.00003348,-0.00006633,-0.0000
 7105,-0.00007169,-0.00001389,-0.00024301,-0.00001324,0.00008609,0.0000
 2206,-0.00008961,0.00002346,0.00012321,0.00000243,0.00003984,0.0000236
 4,-0.00001245,-0.00008878,-0.00004570,-0.00012297,-0.00010382,-0.00007
 988,-0.00000206,-0.00000842,0.00000923,-0.00550500,-0.00195159,0.00113
 941,0.00135053,0.00068735,-0.00040547,-0.00208406,0.00318321,-0.001895
 71,0.00092269,-0.00109839,0.00031462,0.00380061,-0.00189589,-0.0061055
 9,0.06333104,-0.00003188,-0.00004967,-0.00013305,0.00001806,-0.0002557
 6,-0.00017661,0.00041082,0.00061208,0.00056594,-0.00045777,0.00129392,
 0.00050497,-0.00003631,0.00005799,-0.00007162,-0.00049681,-0.00041641,
 0.00005893,0.00037779,-0.00069666,0.00006430,0.00012812,0.00009883,-0.
 00003771,-0.00002113,-0.00003777,-0.00000142,0.00003166,0.00000450,0.0
 0000655,-0.00102148,-0.00042365,-0.00100049,0.00016513,0.00001264,-0.0
 0002919,0.00041037,-0.00125959,-0.00117612,-0.00013800,0.00019101,-0.0
 0017591,-0.00006151,0.00004191,0.00001668,-0.00000448,-0.00009212,-0.0
 0005731,0.00013584,0.00005992,-0.00017426,0.00002886,0.00002737,0.0001
 0222,-0.00008158,0.00006350,0.00013483,0.00008161,0.00013229,-0.000160
 17,-0.00067503,-0.00053688,0.00938500,-0.00801658,-0.05664426,0.048416
 70,-0.00353693,-0.00251890,0.02312799,-0.00001746,-0.00004209,-0.00000
 130,-0.00000201,-0.00001670,-0.00000978,0.00003091,0.00007427,0.000050
 92,-0.00000311,-0.00000720,-0.00000386,-0.00003017,-0.00003396,-0.0000
 5008,-0.00001115,-0.00004968,-0.00011151,0.00000887,-0.00006300,-0.000
 01691,0.00006793,-0.00007858,-0.00020017,0.00002415,-0.00007347,-0.000
 06624,-0.00011937,0.00002878,0.00001760,0.00004154,-0.00006523,0.00001
 784,0.00001196,-0.00001200,-0.00001243,-0.00203097,-0.00018399,0.00006
 630,0.00003583,0.00042105,-0.00069201,0.00310223,-0.00296905,0.0016471
 4,0.00010167,0.00087862,-0.00074175,0.00301542,-0.00938863,-0.04158465
 ,0.00741203,0.07067943,0.00002736,0.00012370,0.00012888,0.00000499,0.0
 0015907,0.00018793,0.00046233,-0.00026419,-0.00094676,-0.00030752,-0.0
 0009802,-0.00106786,0.00005115,0.00018330,0.00016560,-0.00014397,0.000
 27904,-0.00112436,-0.00023332,-0.00008604,-0.00116969,-0.00002319,0.00
 027935,0.00021171,0.00009700,0.00009972,-0.00004112,-0.00003781,-0.000
 02496,-0.00001480,-0.00192706,-0.00165140,-0.00013347,-0.00028318,-0.0
 0019024,0.00004024,0.00070378,-0.00161884,0.00044639,0.00020254,-0.000
 28511,0.00032689,0.00005579,-0.00003692,-0.00001228,-0.00003298,0.0001
 7945,-0.00003625,-0.00030878,-0.00020845,0.00035688,-0.00001816,-0.000
 02941,-0.00001022,0.00000494,-0.00005347,0.00001802,-0.00015234,-0.000
 05512,0.00019738,0.00197508,0.00231502,-0.00463985,0.03887075,0.046930
 67,-0.28125778,0.00196493,0.00430596,-0.01128722,0.00002247,0.00002911
 ,-0.00002046,0.00001137,0.00004168,0.00002967,-0.00005216,-0.00016505,
 -0.00012640,0.00000843,0.00001222,-0.00000053,0.00001459,0.00002427,0.
 00002028,0.00000641,0.00000519,0.00009129,-0.00000384,0.00002869,0.000
 00325,-0.00004139,-0.00000706,0.00011683,-0.00000961,0.00003369,0.0000
 2797,0.00012857,-0.00004048,0.00000811,-0.00009901,0.00019814,-0.00005
 967,-0.00002779,0.00002402,0.00002146,0.00052156,-0.00021390,0.0009404
 9,0.00027432,-0.00010723,0.00042235,-0.00149539,0.00101959,0.00032826,
 -0.00024870,-0.00032246,0.00042971,-0.00034318,-0.01307564,-0.01859454
 ,-0.04000383,-0.03752331,0.31625023,-0.00001559,0.00000261,-0.00003793
 ,0.00005480,-0.00026988,-0.00003454,-0.00012708,0.00043305,0.00051771,
 -0.00069536,0.00033966,-0.00032890,-0.00000368,-0.00010217,-0.00015243
 ,-0.00007595,-0.00012623,0.00011750,0.00011887,-0.00003510,0.00004944,
 0.00011034,0.00017856,0.00012999,-0.00004543,0.00000757,0.00004090,-0.
 00000976,0.00001632,0.00000146,0.00005596,0.00004289,-0.00010017,0.000
 01098,0.00001257,-0.00000588,-0.00002619,0.00000883,-0.00009453,-0.000
 05244,0.00003814,-0.00000043,-0.00003123,0.00000646,-0.00000812,-0.000
 04354,0.00005658,-0.00003834,0.00004375,0.00004406,-0.00006704,0.00000
 425,0.00000770,-0.00000057,-0.00003060,0.00000191,-0.00001125,0.000058
 42,0.00011237,0.00002062,0.00084412,-0.00181432,-0.00191963,-0.0056020
 9,0.00230905,0.00254062,0.00348123,0.00144643,0.00101699,-0.00000449,0
 .00000084,0.00000456,-0.00000142,-0.00001505,-0.00000834,0.00000586,0.
 00002688,0.00002043,0.00000029,0.00000331,0.00000098,0.00000305,0.0000
 0179,0.00000134,0.00000306,-0.00000963,0.00001170,-0.00000275,-0.00000
 233,0.00000576,0.00001149,-0.00000449,0.00000818,0.00000323,0.00001428
 ,-0.00001071,-0.00002895,-0.00000715,-0.00001029,-0.00001818,-0.000030
 88,0.00000879,-0.00001415,-0.00002363,-0.00000668,0.00031665,0.0002685
 0,-0.00019483,0.00030297,0.00012116,0.00012001,-0.00009405,-0.00015108
 ,-0.00012042,-0.00059141,-0.00065399,0.00056363,-0.47595669,-0.1590955
 8,0.05648970,0.00034936,0.00115296,0.00038486,0.47769235,0.00053992,0.
 00017270,0.00011576,-0.00033089,0.00046900,0.00015860,-0.00187239,0.00
 068803,0.00057502,-0.00005390,-0.00046894,-0.00085386,0.00003125,-0.00
 046203,-0.00031517,0.00003866,-0.00014285,0.00008579,0.00013602,0.0001
 5221,-0.00013455,0.00013507,0.00015576,0.00024942,-0.00015687,-0.00005
 993,0.00008935,0.00004309,-0.00000094,-0.00001005,0.00000614,0.0000592
 0,-0.00006147,0.00004650,-0.00000624,0.00001210,-0.00003493,-0.0000545
 5,-0.00001576,-0.00003953,0.00006750,0.00011378,0.00008208,-0.00007100
 ,0.00000487,-0.00004505,0.00016125,-0.00005353,-0.00001506,0.00004933,
 -0.00003765,-0.00002433,0.00001340,-0.00003279,-0.00001884,-0.00002576
 ,-0.00002946,-0.00004725,-0.00011389,0.00003179,0.00024878,-0.00599042
 ,-0.00397308,-0.03749152,-0.01485299,0.00445364,-0.00146751,0.00112634
 ,0.00135175,0.00000490,-0.00002343,-0.00003340,0.00001528,-0.00002636,
 0.00000979,0.00000102,0.00001094,0.00000411,-0.00001772,-0.00002829,0.
 00001983,0.00003484,-0.00000305,0.00001771,-0.00001593,0.00001242,0.00
 003274,0.00001892,0.00004462,0.00000290,-0.00003065,-0.00000478,0.0000
 7543,-0.00000156,0.00005423,-0.00002736,0.00000874,0.00002725,-0.00000
 847,0.00012758,0.00005941,-0.00006272,-0.00001339,0.00006618,0.0000715
 9,0.00039166,0.00003877,-0.00001808,0.00006435,0.00017772,-0.00012699,
 0.00008810,-0.00025201,0.00017536,0.00156057,-0.00062325,-0.00013074,-
 0.11804360,-0.07340990,-0.00541663,0.00041041,0.00123716,-0.00021461,0
 .15568703,0.09177721,-0.00005813,-0.00001251,-0.00004330,0.00007715,0.
 00002440,-0.00007840,-0.00085202,-0.00043490,0.00089203,-0.00007543,0.
 00013980,-0.00000768,-0.00005263,-0.00028443,-0.00023248,-0.00007370,0
 .00001411,0.00026724,0.00001808,-0.00012743,0.00014545,0.00003513,-0.0
 0000813,-0.00003997,-0.00008972,-0.00004342,0.00004286,-0.00000942,0.0
 0001868,-0.00001277,0.00007536,0.00003209,-0.00006253,-0.00000676,0.00
 000403,-0.00001562,-0.00008120,0.00001069,-0.00012664,-0.00000329,0.00
 004363,-0.00008221,-0.00002937,0.00001576,0.00002528,-0.00000557,-0.00
 004438,-0.00001021,0.00005448,0.00001903,-0.00002941,0.00001302,0.0000
 1639,-0.00003379,-0.00003357,0.00005097,0.00000660,-0.00003467,-0.0000
 2754,-0.00011987,0.00026242,-0.00252628,-0.00205942,-0.02208661,-0.009
 84866,0.00014359,0.00041150,-0.00000163,0.00019980,-0.00000552,-0.0000
 0777,0.00000944,-0.00000776,-0.00000304,-0.00000998,0.00001233,0.00002
 834,0.00001996,0.00000314,0.00001301,0.00000551,0.00000440,0.00000942,
 0.00000245,0.00001551,-0.00001097,0.00002308,0.00000286,-0.00002066,-0
 .00000892,0.00003867,-0.00000851,-0.00002002,0.00000074,0.00001056,-0.
 00001137,-0.00000957,0.00007208,0.00001622,0.00008374,-0.00003899,0.00
 007540,0.00002101,-0.00002267,-0.00002461,-0.00005764,-0.00006678,0.00
 036277,0.00019142,-0.00000243,-0.00012732,0.00031333,0.00046166,-0.000
 36288,0.00020507,-0.00000813,0.00051177,0.08156055,0.00863560,-0.02311
 568,-0.00092316,0.00002394,-0.00022656,-0.05890416,0.00390505,0.024112
 19\\0.00001742,0.00003669,-0.00000305,0.00000176,-0.00002028,-0.000003
 12,0.00000576,-0.00003187,0.00000359,-0.00001374,-0.00002653,-0.000000
 21,-0.00000331,0.00000629,0.00000175,0.00000589,0.00000093,0.00000111,
 0.00000506,-0.00000504,-0.00000157,-0.00000157,0.00000024,0.00000454,-
 0.00000182,0.00000321,-0.00000286,0.00000280,-0.00000072,0.00000211,0.
 00000556,-0.00000103,-0.00000137,0.00000094,0.00000014,0.00000447,-0.0
 0000759,0.00000796,-0.00000172,0.00000146,0.00000052,-0.00000179,-0.00
 000765,0.00000066,-0.00000082,-0.00000157,-0.00000002,-0.00000045,-0.0
 0000686,0.00000199,-0.00000780,-0.00001425,-0.00000477,0.00001092,0.00
 000180,-0.00001001,0.00000136,0.00000513,-0.00000138,-0.00000460,-0.00
 000838,0.00001426,-0.00000893,-0.00000057,-0.00002065,-0.00000406,0.00
 000919,0.00001351,0.00000117,-0.00000572,0.00000107,0.00000194,0.00000
 053,0.00000189,0.00000468,-0.00000273,0.00000167,0.00000282,0.00000223
 ,0.00000331,-0.00000154,0.00000412,0.00000344,0.00000145,0.00000591,0.
 00000295,0.00000009,0.00000138,0.00000229,0.00000049,0.00000037,-0.000
 00253,-0.00000071,-0.00000034,0.00000217,-0.00000416,-0.00000146,0.000
 00333,-0.00001000,-0.00000390,-0.00000117,-0.00000333,-0.00000151,-0.0
 0000027,-0.00000042,-0.00000245,-0.00000067,0.00001079,0.00000316,0.00
 000255,0.00000489,0.00000158,0.00000030,0.00000117,0.00000052,0.000000
 66,-0.00000050,0.00000684,0.00001433,0.00000316,-0.00000105,0.00000400
 ,-0.00000163,-0.00000293,-0.00000346,0.00000216\\\@
 The archive entry for this job was punched.


 THE MEEK SHALL INHERIT THE EARTH.
 (THE REST OF US WILL ESCAPE TO THE STARS)
 Job cpu time:       3 days  0 hours 40 minutes 38.7 seconds.
 Elapsed time:       0 days  3 hours 38 minutes  2.8 seconds.
 File lengths (MBytes):  RWF=   2690 Int=      0 D2E=      0 Chk=     49 Scr=      1
 Normal termination of Gaussian 16 at Thu Jan  9 23:17:44 2025.
