 Entering Gaussian System, Link 0=g16
 Input=gjfs/data_set_3-catalyst-Mix_16_opt.gjf
 Output=gjfs/data_set_3-catalyst-Mix_16_opt.log
 Initial command:
 /usr/local/intel/g16/l1.exe "/scr/Gau-58490.inp" -scrdir="/scr/"
 Entering Link 1 = /usr/local/intel/g16/l1.exe PID=     58492.
  
 Copyright (c) 1988-2019, Gaussian, Inc.  All Rights Reserved.
  
 This is part of the Gaussian(R) 16 program.  It is based on
 the Gaussian(R) 09 system (copyright 2009, Gaussian, Inc.),
 the Gaussian(R) 03 system (copyright 2003, Gaussian, Inc.),
 the Gaussian(R) 98 system (copyright 1998, Gaussian, Inc.),
 the Gaussian(R) 94 system (copyright 1995, Gaussian, Inc.),
 the Gaussian 92(TM) system (copyright 1992, Gaussian, Inc.),
 the Gaussian 90(TM) system (copyright 1990, Gaussian, Inc.),
 the Gaussian 88(TM) system (copyright 1988, Gaussian, Inc.),
 the Gaussian 86(TM) system (copyright 1986, Carnegie Mellon
 University), and the Gaussian 82(TM) system (copyright 1983,
 Carnegie Mellon University). Gaussian is a federally registered
 trademark of Gaussian, Inc.
  
 This software contains proprietary and confidential information,
 including trade secrets, belonging to Gaussian, Inc.
  
 This software is provided under written license and may be
 used, copied, transmitted, or stored only in accord with that
 written license.
  
 The following legend is applicable only to US Government
 contracts under FAR:
  
                    RESTRICTED RIGHTS LEGEND
  
 Use, reproduction and disclosure by the US Government is
 subject to restrictions as set forth in subparagraphs (a)
 and (c) of the Commercial Computer Software - Restricted
 Rights clause in FAR 52.227-19.
  
 Gaussian, Inc.
 340 Quinnipiac St., Bldg. 40, Wallingford CT 06492
  
  
 ---------------------------------------------------------------
 Warning -- This program may not be used in any manner that
 competes with the business of Gaussian, Inc. or will provide
 assistance to any competitor of Gaussian, Inc.  The licensee
 of this program is prohibited from giving any competitor of
 Gaussian, Inc. access to this program.  By using this program,
 the user acknowledges that Gaussian, Inc. is engaged in the
 business of creating and licensing software in the field of
 computational chemistry and represents and warrants to the
 licensee that it is not a competitor of Gaussian, Inc. and that
 it will not use this program in any manner prohibited above.
 ---------------------------------------------------------------
  

 Cite this work as:
 Gaussian 16, Revision C.01,
 M. J. Frisch, G. W. Trucks, H. B. Schlegel, G. E. Scuseria, 
 M. A. Robb, J. R. Cheeseman, G. Scalmani, V. Barone, 
 G. A. Petersson, H. Nakatsuji, X. Li, M. Caricato, A. V. Marenich, 
 J. Bloino, B. G. Janesko, R. Gomperts, B. Mennucci, H. P. Hratchian, 
 J. V. Ortiz, A. F. Izmaylov, J. L. Sonnenberg, D. Williams-Young, 
 F. Ding, F. Lipparini, F. Egidi, J. Goings, B. Peng, A. Petrone, 
 T. Henderson, D. Ranasinghe, V. G. Zakrzewski, J. Gao, N. Rega, 
 G. Zheng, W. Liang, M. Hada, M. Ehara, K. Toyota, R. Fukuda, 
 J. Hasegawa, M. Ishida, T. Nakajima, Y. Honda, O. Kitao, H. Nakai, 
 T. Vreven, K. Throssell, J. A. Montgomery, Jr., J. E. Peralta, 
 F. Ogliaro, M. J. Bearpark, J. J. Heyd, E. N. Brothers, K. N. Kudin, 
 V. N. Staroverov, T. A. Keith, R. Kobayashi, J. Normand, 
 K. Raghavachari, A. P. Rendell, J. C. Burant, S. S. Iyengar, 
 J. Tomasi, M. Cossi, J. M. Millam, M. Klene, C. Adamo, R. Cammi, 
 J. W. Ochterski, R. L. Martin, K. Morokuma, O. Farkas, 
 J. B. Foresman, and D. J. Fox, Gaussian, Inc., Wallingford CT, 2019.
 
 ******************************************
 Gaussian 16:  ES64L-G16RevC.01  3-Jul-2019
                 9-Jan-2025 
 ******************************************
 %nprocshared=20
 Will use up to   20 processors via shared memory.
 %mem=30GB
 %chk=outputs/data_set_3-catalyst-Mix_16_opt.chk
 ----------------------------------
 #p M062X/DEF2TZVP opt freq pop=NBO
 ----------------------------------
 1/18=20,19=15,26=3,38=1/1,3;
 2/9=110,12=2,17=6,18=5,40=1/2;
 3/5=44,7=101,11=2,25=1,30=1,71=1,74=-55/1,2,3;
 4//1;
 5/5=2,38=5/2;
 6/7=2,8=2,9=2,10=2,28=1,40=1/1,7;
 7//1,2,3,16;
 1/18=20,19=15,26=3/3(2);
 2/9=110/2;
 99//99;
 2/9=110/2;
 3/5=44,7=101,11=2,25=1,30=1,71=1,74=-55/1,2,3;
 4/5=5,16=3,69=1/1;
 5/5=2,38=5/2;
 7//1,2,3,16;
 1/18=20,19=15,26=3/3(-5);
 2/9=110/2;
 6/7=2,8=2,9=2,10=2,19=2,28=1,40=1/1,7;
 99/9=1/99;
 Leave Link    1 at Thu Jan  9 14:28:29 2025, MaxMem=  4026531840 cpu:               1.0 elap:               0.1
 (Enter /usr/local/intel/g16/l101.exe)
 ------------------------------
 data_set_3-catalyst-Mix_16_opt
 ------------------------------
 Symbolic Z-matrix:
 Charge =  0 Multiplicity = 2
 O                     0.44194   1.28284  -1.48593 
 N                     0.23184   0.5277   -0.42193 
 C                     1.38107  -0.31828   0.04434 
 C                    -1.21125   0.31406  -0.05508 
 C                     2.68649   0.50433  -0.08718 
 C                     1.49557  -1.62707  -0.79902 
 C                    -1.81709  -0.6902   -1.08283 
 C                    -1.94616   1.67692  -0.14225 
 H                     2.83844   0.73459  -1.14405 
 H                     3.5102   -0.14923   0.22867 
 H                     0.65827  -2.2913   -0.55366 
 H                     2.3996   -2.14454  -0.4513 
 H                    -1.35807  -1.67489  -0.93462 
 H                    -1.52448  -0.34006  -2.07941 
 H                    -2.94447   1.53019   0.28811 
 H                    -2.08088   1.93304  -1.19768 
 C                     1.57083  -1.44603  -2.32267 
 C                     2.73155   1.81923   0.70751 
 C                    -1.24994   2.84987   0.56607 
 C                    -3.34645  -0.84794  -1.03455 
 C                     1.14632  -0.72036   1.52503 
 C                    -0.25369  -1.25414   1.7179 
 C                    -1.3266   -0.2416    1.39019 
 O                    -0.50154  -2.40927   2.10163 
 H                     2.45065  -0.86929  -2.62237 
 H                     0.69076  -0.92666  -2.71014 
 H                     1.63218  -2.42717  -2.80573 
 H                     3.65357   2.36085   0.47242 
 H                     2.71821   1.65756   1.79113 
 H                     1.88906   2.46257   0.43964 
 H                    -0.99731   2.62134   1.60873 
 H                    -1.90903   3.72437   0.57324 
 H                    -0.33074   3.12155   0.04205 
 H                    -3.85916   0.08206  -1.29728 
 H                    -3.69975  -1.16815  -0.04827 
 H                    -3.65737  -1.61169  -1.75477 
 H                     1.26568   0.15889   2.16724 
 H                     1.88184  -1.47403   1.81629 
 H                    -1.22585   0.58548   2.10332 
 H                    -2.3114   -0.69056   1.53155 
 
 ITRead=  0  0  0  0  0  0  0  0  0  0  0  0  0  0  0  0  0  0  0  0
 ITRead=  0  0  0  0  0  0  0  0  0  0  0  0  0  0  0  0  0  0  0  0
 MicOpt= -1 -1 -1 -1 -1 -1 -1 -1 -1 -1 -1 -1 -1 -1 -1 -1 -1 -1 -1 -1
 MicOpt= -1 -1 -1 -1 -1 -1 -1 -1 -1 -1 -1 -1 -1 -1 -1 -1 -1 -1 -1 -1
 NAtoms=     40 NQM=       40 NQMF=       0 NMMI=      0 NMMIF=      0
                NMic=       0 NMicF=      0.
                    Isotopes and Nuclear Properties:
 (Nuclear quadrupole moments (NQMom) in fm**2, nuclear magnetic moments (NMagM)
  in nuclear magnetons)

  Atom         1           2           3           4           5           6           7           8           9          10
 IAtWgt=          16          14          12          12          12          12          12          12           1           1
 AtmWgt=  15.9949146  14.0030740  12.0000000  12.0000000  12.0000000  12.0000000  12.0000000  12.0000000   1.0078250   1.0078250
 NucSpn=           0           2           0           0           0           0           0           0           1           1
 AtZEff=  -0.0000000  -0.0000000  -0.0000000  -0.0000000  -0.0000000  -0.0000000  -0.0000000  -0.0000000  -0.0000000  -0.0000000
 NQMom=    0.0000000   2.0440000   0.0000000   0.0000000   0.0000000   0.0000000   0.0000000   0.0000000   0.0000000   0.0000000
 NMagM=    0.0000000   0.4037610   0.0000000   0.0000000   0.0000000   0.0000000   0.0000000   0.0000000   2.7928460   2.7928460
 AtZNuc=   8.0000000   7.0000000   6.0000000   6.0000000   6.0000000   6.0000000   6.0000000   6.0000000   1.0000000   1.0000000

  Atom        11          12          13          14          15          16          17          18          19          20
 IAtWgt=           1           1           1           1           1           1          12          12          12          12
 AtmWgt=   1.0078250   1.0078250   1.0078250   1.0078250   1.0078250   1.0078250  12.0000000  12.0000000  12.0000000  12.0000000
 NucSpn=           1           1           1           1           1           1           0           0           0           0
 AtZEff=  -0.0000000  -0.0000000  -0.0000000  -0.0000000  -0.0000000  -0.0000000  -0.0000000  -0.0000000  -0.0000000  -0.0000000
 NQMom=    0.0000000   0.0000000   0.0000000   0.0000000   0.0000000   0.0000000   0.0000000   0.0000000   0.0000000   0.0000000
 NMagM=    2.7928460   2.7928460   2.7928460   2.7928460   2.7928460   2.7928460   0.0000000   0.0000000   0.0000000   0.0000000
 AtZNuc=   1.0000000   1.0000000   1.0000000   1.0000000   1.0000000   1.0000000   6.0000000   6.0000000   6.0000000   6.0000000

  Atom        21          22          23          24          25          26          27          28          29          30
 IAtWgt=          12          12          12          16           1           1           1           1           1           1
 AtmWgt=  12.0000000  12.0000000  12.0000000  15.9949146   1.0078250   1.0078250   1.0078250   1.0078250   1.0078250   1.0078250
 NucSpn=           0           0           0           0           1           1           1           1           1           1
 AtZEff=  -0.0000000  -0.0000000  -0.0000000  -0.0000000  -0.0000000  -0.0000000  -0.0000000  -0.0000000  -0.0000000  -0.0000000
 NQMom=    0.0000000   0.0000000   0.0000000   0.0000000   0.0000000   0.0000000   0.0000000   0.0000000   0.0000000   0.0000000
 NMagM=    0.0000000   0.0000000   0.0000000   0.0000000   2.7928460   2.7928460   2.7928460   2.7928460   2.7928460   2.7928460
 AtZNuc=   6.0000000   6.0000000   6.0000000   8.0000000   1.0000000   1.0000000   1.0000000   1.0000000   1.0000000   1.0000000

  Atom        31          32          33          34          35          36          37          38          39          40
 IAtWgt=           1           1           1           1           1           1           1           1           1           1
 AtmWgt=   1.0078250   1.0078250   1.0078250   1.0078250   1.0078250   1.0078250   1.0078250   1.0078250   1.0078250   1.0078250
 NucSpn=           1           1           1           1           1           1           1           1           1           1
 AtZEff=  -0.0000000  -0.0000000  -0.0000000  -0.0000000  -0.0000000  -0.0000000  -0.0000000  -0.0000000  -0.0000000  -0.0000000
 NQMom=    0.0000000   0.0000000   0.0000000   0.0000000   0.0000000   0.0000000   0.0000000   0.0000000   0.0000000   0.0000000
 NMagM=    2.7928460   2.7928460   2.7928460   2.7928460   2.7928460   2.7928460   2.7928460   2.7928460   2.7928460   2.7928460
 AtZNuc=   1.0000000   1.0000000   1.0000000   1.0000000   1.0000000   1.0000000   1.0000000   1.0000000   1.0000000   1.0000000
 Leave Link  101 at Thu Jan  9 14:28:31 2025, MaxMem=  4026531840 cpu:              26.5 elap:               1.3
 (Enter /usr/local/intel/g16/l103.exe)

 GradGradGradGradGradGradGradGradGradGradGradGradGradGradGradGradGradGrad
 Berny optimization.
 Initialization pass.
                           ----------------------------
                           !    Initial Parameters    !
                           ! (Angstroms and Degrees)  !
 --------------------------                            --------------------------
 ! Name  Definition              Value          Derivative Info.                !
 --------------------------------------------------------------------------------
 ! R1    R(1,2)                  1.3215         estimate D2E/DX2                !
 ! R2    R(2,3)                  1.5013         estimate D2E/DX2                !
 ! R3    R(2,4)                  1.5042         estimate D2E/DX2                !
 ! R4    R(3,5)                  1.5486         estimate D2E/DX2                !
 ! R5    R(3,6)                  1.5612         estimate D2E/DX2                !
 ! R6    R(3,21)                 1.5522         estimate D2E/DX2                !
 ! R7    R(4,7)                  1.5594         estimate D2E/DX2                !
 ! R8    R(4,8)                  1.5508         estimate D2E/DX2                !
 ! R9    R(4,23)                 1.5527         estimate D2E/DX2                !
 ! R10   R(5,9)                  1.0923         estimate D2E/DX2                !
 ! R11   R(5,10)                 1.0979         estimate D2E/DX2                !
 ! R12   R(5,18)                 1.537          estimate D2E/DX2                !
 ! R13   R(6,11)                 1.0966         estimate D2E/DX2                !
 ! R14   R(6,12)                 1.0982         estimate D2E/DX2                !
 ! R15   R(6,17)                 1.5362         estimate D2E/DX2                !
 ! R16   R(7,13)                 1.0965         estimate D2E/DX2                !
 ! R17   R(7,14)                 1.0961         estimate D2E/DX2                !
 ! R18   R(7,20)                 1.5382         estimate D2E/DX2                !
 ! R19   R(8,15)                 1.097          estimate D2E/DX2                !
 ! R20   R(8,16)                 1.0944         estimate D2E/DX2                !
 ! R21   R(8,19)                 1.537          estimate D2E/DX2                !
 ! R22   R(17,25)                1.0939         estimate D2E/DX2                !
 ! R23   R(17,26)                1.0929         estimate D2E/DX2                !
 ! R24   R(17,27)                1.0953         estimate D2E/DX2                !
 ! R25   R(18,28)                1.0949         estimate D2E/DX2                !
 ! R26   R(18,29)                1.0957         estimate D2E/DX2                !
 ! R27   R(18,30)                1.0934         estimate D2E/DX2                !
 ! R28   R(19,31)                1.0969         estimate D2E/DX2                !
 ! R29   R(19,32)                1.0951         estimate D2E/DX2                !
 ! R30   R(19,33)                1.0924         estimate D2E/DX2                !
 ! R31   R(20,34)                1.094          estimate D2E/DX2                !
 ! R32   R(20,35)                1.0955         estimate D2E/DX2                !
 ! R33   R(20,36)                1.0948         estimate D2E/DX2                !
 ! R34   R(21,22)                1.5107         estimate D2E/DX2                !
 ! R35   R(21,37)                1.0953         estimate D2E/DX2                !
 ! R36   R(21,38)                1.0926         estimate D2E/DX2                !
 ! R37   R(22,23)                1.5112         estimate D2E/DX2                !
 ! R38   R(22,24)                1.2422         estimate D2E/DX2                !
 ! R39   R(23,39)                1.0967         estimate D2E/DX2                !
 ! R40   R(23,40)                1.0915         estimate D2E/DX2                !
 ! A1    A(1,2,3)              116.766          estimate D2E/DX2                !
 ! A2    A(1,2,4)              115.4692         estimate D2E/DX2                !
 ! A3    A(3,2,4)              125.3528         estimate D2E/DX2                !
 ! A4    A(2,3,5)              108.6383         estimate D2E/DX2                !
 ! A5    A(2,3,6)              111.1475         estimate D2E/DX2                !
 ! A6    A(2,3,21)             109.0557         estimate D2E/DX2                !
 ! A7    A(5,3,6)              109.7314         estimate D2E/DX2                !
 ! A8    A(5,3,21)             110.2498         estimate D2E/DX2                !
 ! A9    A(6,3,21)             108.0143         estimate D2E/DX2                !
 ! A10   A(2,4,7)              107.6646         estimate D2E/DX2                !
 ! A11   A(2,4,8)              108.4272         estimate D2E/DX2                !
 ! A12   A(2,4,23)             110.4326         estimate D2E/DX2                !
 ! A13   A(7,4,8)              110.1687         estimate D2E/DX2                !
 ! A14   A(7,4,23)             110.74           estimate D2E/DX2                !
 ! A15   A(8,4,23)             109.3658         estimate D2E/DX2                !
 ! A16   A(3,5,9)              108.1454         estimate D2E/DX2                !
 ! A17   A(3,5,10)             106.9663         estimate D2E/DX2                !
 ! A18   A(3,5,18)             115.7998         estimate D2E/DX2                !
 ! A19   A(9,5,10)             107.4256         estimate D2E/DX2                !
 ! A20   A(9,5,18)             108.4116         estimate D2E/DX2                !
 ! A21   A(10,5,18)            109.7862         estimate D2E/DX2                !
 ! A22   A(3,6,11)             109.3249         estimate D2E/DX2                !
 ! A23   A(3,6,12)             106.5204         estimate D2E/DX2                !
 ! A24   A(3,6,17)             116.1412         estimate D2E/DX2                !
 ! A25   A(11,6,12)            105.8015         estimate D2E/DX2                !
 ! A26   A(11,6,17)            109.3121         estimate D2E/DX2                !
 ! A27   A(12,6,17)            109.2239         estimate D2E/DX2                !
 ! A28   A(4,7,13)             109.0632         estimate D2E/DX2                !
 ! A29   A(4,7,14)             106.8453         estimate D2E/DX2                !
 ! A30   A(4,7,20)             115.5704         estimate D2E/DX2                !
 ! A31   A(13,7,14)            107.3387         estimate D2E/DX2                !
 ! A32   A(13,7,20)            108.6555         estimate D2E/DX2                !
 ! A33   A(14,7,20)            109.0692         estimate D2E/DX2                !
 ! A34   A(4,8,15)             106.9578         estimate D2E/DX2                !
 ! A35   A(4,8,16)             108.5546         estimate D2E/DX2                !
 ! A36   A(4,8,19)             115.4742         estimate D2E/DX2                !
 ! A37   A(15,8,16)            107.3143         estimate D2E/DX2                !
 ! A38   A(15,8,19)            109.4825         estimate D2E/DX2                !
 ! A39   A(16,8,19)            108.7601         estimate D2E/DX2                !
 ! A40   A(6,17,25)            111.9182         estimate D2E/DX2                !
 ! A41   A(6,17,26)            111.6041         estimate D2E/DX2                !
 ! A42   A(6,17,27)            109.5478         estimate D2E/DX2                !
 ! A43   A(25,17,26)           107.457          estimate D2E/DX2                !
 ! A44   A(25,17,27)           107.8429         estimate D2E/DX2                !
 ! A45   A(26,17,27)           108.3268         estimate D2E/DX2                !
 ! A46   A(5,18,28)            109.6857         estimate D2E/DX2                !
 ! A47   A(5,18,29)            112.6278         estimate D2E/DX2                !
 ! A48   A(5,18,30)            110.7391         estimate D2E/DX2                !
 ! A49   A(28,18,29)           107.1936         estimate D2E/DX2                !
 ! A50   A(28,18,30)           107.7711         estimate D2E/DX2                !
 ! A51   A(29,18,30)           108.6468         estimate D2E/DX2                !
 ! A52   A(8,19,31)            112.5437         estimate D2E/DX2                !
 ! A53   A(8,19,32)            109.8667         estimate D2E/DX2                !
 ! A54   A(8,19,33)            110.4805         estimate D2E/DX2                !
 ! A55   A(31,19,32)           107.3838         estimate D2E/DX2                !
 ! A56   A(31,19,33)           108.2997         estimate D2E/DX2                !
 ! A57   A(32,19,33)           108.1185         estimate D2E/DX2                !
 ! A58   A(7,20,34)            111.7929         estimate D2E/DX2                !
 ! A59   A(7,20,35)            112.2641         estimate D2E/DX2                !
 ! A60   A(7,20,36)            109.4658         estimate D2E/DX2                !
 ! A61   A(34,20,35)           108.2729         estimate D2E/DX2                !
 ! A62   A(34,20,36)           107.5743         estimate D2E/DX2                !
 ! A63   A(35,20,36)           107.2627         estimate D2E/DX2                !
 ! A64   A(3,21,22)            110.7001         estimate D2E/DX2                !
 ! A65   A(3,21,37)            109.5656         estimate D2E/DX2                !
 ! A66   A(3,21,38)            109.3398         estimate D2E/DX2                !
 ! A67   A(22,21,37)           108.045          estimate D2E/DX2                !
 ! A68   A(22,21,38)           110.2485         estimate D2E/DX2                !
 ! A69   A(37,21,38)           108.9088         estimate D2E/DX2                !
 ! A70   A(21,22,23)           113.1746         estimate D2E/DX2                !
 ! A71   A(21,22,24)           123.5681         estimate D2E/DX2                !
 ! A72   A(23,22,24)           123.2567         estimate D2E/DX2                !
 ! A73   A(4,23,22)            112.8846         estimate D2E/DX2                !
 ! A74   A(4,23,39)            109.1815         estimate D2E/DX2                !
 ! A75   A(4,23,40)            109.5591         estimate D2E/DX2                !
 ! A76   A(22,23,39)           107.4007         estimate D2E/DX2                !
 ! A77   A(22,23,40)           109.6869         estimate D2E/DX2                !
 ! A78   A(39,23,40)           107.9914         estimate D2E/DX2                !
 ! D1    D(1,2,3,5)             39.8139         estimate D2E/DX2                !
 ! D2    D(1,2,3,6)            -81.0161         estimate D2E/DX2                !
 ! D3    D(1,2,3,21)           160.0092         estimate D2E/DX2                !
 ! D4    D(4,2,3,5)           -158.6817         estimate D2E/DX2                !
 ! D5    D(4,2,3,6)             80.4882         estimate D2E/DX2                !
 ! D6    D(4,2,3,21)           -38.4864         estimate D2E/DX2                !
 ! D7    D(1,2,4,7)             74.3986         estimate D2E/DX2                !
 ! D8    D(1,2,4,8)            -44.7784         estimate D2E/DX2                !
 ! D9    D(1,2,4,23)          -164.5875         estimate D2E/DX2                !
 ! D10   D(3,2,4,7)            -87.3172         estimate D2E/DX2                !
 ! D11   D(3,2,4,8)            153.5058         estimate D2E/DX2                !
 ! D12   D(3,2,4,23)            33.6967         estimate D2E/DX2                !
 ! D13   D(2,3,5,9)            -62.7457         estimate D2E/DX2                !
 ! D14   D(2,3,5,10)          -178.1793         estimate D2E/DX2                !
 ! D15   D(2,3,5,18)            59.0975         estimate D2E/DX2                !
 ! D16   D(6,3,5,9)             58.9536         estimate D2E/DX2                !
 ! D17   D(6,3,5,10)           -56.48           estimate D2E/DX2                !
 ! D18   D(6,3,5,18)          -179.2033         estimate D2E/DX2                !
 ! D19   D(21,3,5,9)           177.8029         estimate D2E/DX2                !
 ! D20   D(21,3,5,10)           62.3693         estimate D2E/DX2                !
 ! D21   D(21,3,5,18)          -60.354          estimate D2E/DX2                !
 ! D22   D(2,3,6,11)           -70.5492         estimate D2E/DX2                !
 ! D23   D(2,3,6,12)           175.5595         estimate D2E/DX2                !
 ! D24   D(2,3,6,17)            53.6798         estimate D2E/DX2                !
 ! D25   D(5,3,6,11)           169.2663         estimate D2E/DX2                !
 ! D26   D(5,3,6,12)            55.375          estimate D2E/DX2                !
 ! D27   D(5,3,6,17)           -66.5047         estimate D2E/DX2                !
 ! D28   D(21,3,6,11)           49.048          estimate D2E/DX2                !
 ! D29   D(21,3,6,12)          -64.8432         estimate D2E/DX2                !
 ! D30   D(21,3,6,17)          173.277          estimate D2E/DX2                !
 ! D31   D(2,3,21,22)           48.4829         estimate D2E/DX2                !
 ! D32   D(2,3,21,37)          -70.5775         estimate D2E/DX2                !
 ! D33   D(2,3,21,38)          170.1327         estimate D2E/DX2                !
 ! D34   D(5,3,21,22)          167.6806         estimate D2E/DX2                !
 ! D35   D(5,3,21,37)           48.6202         estimate D2E/DX2                !
 ! D36   D(5,3,21,38)          -70.6696         estimate D2E/DX2                !
 ! D37   D(6,3,21,22)          -72.427          estimate D2E/DX2                !
 ! D38   D(6,3,21,37)          168.5126         estimate D2E/DX2                !
 ! D39   D(6,3,21,38)           49.2228         estimate D2E/DX2                !
 ! D40   D(2,4,7,13)            67.8051         estimate D2E/DX2                !
 ! D41   D(2,4,7,14)           -47.9215         estimate D2E/DX2                !
 ! D42   D(2,4,7,20)          -169.4752         estimate D2E/DX2                !
 ! D43   D(8,4,7,13)          -174.1356         estimate D2E/DX2                !
 ! D44   D(8,4,7,14)            70.1379         estimate D2E/DX2                !
 ! D45   D(8,4,7,20)           -51.4158         estimate D2E/DX2                !
 ! D46   D(23,4,7,13)          -53.016          estimate D2E/DX2                !
 ! D47   D(23,4,7,14)         -168.7426         estimate D2E/DX2                !
 ! D48   D(23,4,7,20)           69.7037         estimate D2E/DX2                !
 ! D49   D(2,4,8,15)          -170.6969         estimate D2E/DX2                !
 ! D50   D(2,4,8,16)            73.8005         estimate D2E/DX2                !
 ! D51   D(2,4,8,19)           -48.5899         estimate D2E/DX2                !
 ! D52   D(7,4,8,15)            71.7145         estimate D2E/DX2                !
 ! D53   D(7,4,8,16)           -43.788          estimate D2E/DX2                !
 ! D54   D(7,4,8,19)          -166.1785         estimate D2E/DX2                !
 ! D55   D(23,4,8,15)          -50.2227         estimate D2E/DX2                !
 ! D56   D(23,4,8,16)         -165.7253         estimate D2E/DX2                !
 ! D57   D(23,4,8,19)           71.8843         estimate D2E/DX2                !
 ! D58   D(2,4,23,22)          -39.2219         estimate D2E/DX2                !
 ! D59   D(2,4,23,39)           80.1529         estimate D2E/DX2                !
 ! D60   D(2,4,23,40)         -161.7707         estimate D2E/DX2                !
 ! D61   D(7,4,23,22)           79.9432         estimate D2E/DX2                !
 ! D62   D(7,4,23,39)         -160.6821         estimate D2E/DX2                !
 ! D63   D(7,4,23,40)          -42.6056         estimate D2E/DX2                !
 ! D64   D(8,4,23,22)         -158.4637         estimate D2E/DX2                !
 ! D65   D(8,4,23,39)          -39.089          estimate D2E/DX2                !
 ! D66   D(8,4,23,40)           78.9875         estimate D2E/DX2                !
 ! D67   D(3,5,18,28)         -174.8652         estimate D2E/DX2                !
 ! D68   D(3,5,18,29)           65.8428         estimate D2E/DX2                !
 ! D69   D(3,5,18,30)          -56.0432         estimate D2E/DX2                !
 ! D70   D(9,5,18,28)          -53.164          estimate D2E/DX2                !
 ! D71   D(9,5,18,29)         -172.456          estimate D2E/DX2                !
 ! D72   D(9,5,18,30)           65.658          estimate D2E/DX2                !
 ! D73   D(10,5,18,28)          63.9125         estimate D2E/DX2                !
 ! D74   D(10,5,18,29)         -55.3795         estimate D2E/DX2                !
 ! D75   D(10,5,18,30)        -177.2655         estimate D2E/DX2                !
 ! D76   D(3,6,17,25)           61.3364         estimate D2E/DX2                !
 ! D77   D(3,6,17,26)          -59.137          estimate D2E/DX2                !
 ! D78   D(3,6,17,27)         -179.1029         estimate D2E/DX2                !
 ! D79   D(11,6,17,25)        -174.428          estimate D2E/DX2                !
 ! D80   D(11,6,17,26)          65.0986         estimate D2E/DX2                !
 ! D81   D(11,6,17,27)         -54.8673         estimate D2E/DX2                !
 ! D82   D(12,6,17,25)         -59.1014         estimate D2E/DX2                !
 ! D83   D(12,6,17,26)        -179.5747         estimate D2E/DX2                !
 ! D84   D(12,6,17,27)          60.4593         estimate D2E/DX2                !
 ! D85   D(4,7,20,34)           63.987          estimate D2E/DX2                !
 ! D86   D(4,7,20,35)          -57.9216         estimate D2E/DX2                !
 ! D87   D(4,7,20,36)         -176.9209         estimate D2E/DX2                !
 ! D88   D(13,7,20,34)        -173.0774         estimate D2E/DX2                !
 ! D89   D(13,7,20,35)          65.0139         estimate D2E/DX2                !
 ! D90   D(13,7,20,36)         -53.9854         estimate D2E/DX2                !
 ! D91   D(14,7,20,34)         -56.3647         estimate D2E/DX2                !
 ! D92   D(14,7,20,35)        -178.2734         estimate D2E/DX2                !
 ! D93   D(14,7,20,36)          62.7273         estimate D2E/DX2                !
 ! D94   D(4,8,19,31)          -52.2419         estimate D2E/DX2                !
 ! D95   D(4,8,19,32)         -171.8427         estimate D2E/DX2                !
 ! D96   D(4,8,19,33)           68.9526         estimate D2E/DX2                !
 ! D97   D(15,8,19,31)          68.505          estimate D2E/DX2                !
 ! D98   D(15,8,19,32)         -51.0958         estimate D2E/DX2                !
 ! D99   D(15,8,19,33)        -170.3005         estimate D2E/DX2                !
 ! D100  D(16,8,19,31)        -174.5227         estimate D2E/DX2                !
 ! D101  D(16,8,19,32)          65.8765         estimate D2E/DX2                !
 ! D102  D(16,8,19,33)         -53.3282         estimate D2E/DX2                !
 ! D103  D(3,21,22,23)         -61.3614         estimate D2E/DX2                !
 ! D104  D(3,21,22,24)         118.366          estimate D2E/DX2                !
 ! D105  D(37,21,22,23)         58.6136         estimate D2E/DX2                !
 ! D106  D(37,21,22,24)       -121.659          estimate D2E/DX2                !
 ! D107  D(38,21,22,23)        177.5251         estimate D2E/DX2                !
 ! D108  D(38,21,22,24)         -2.7475         estimate D2E/DX2                !
 ! D109  D(21,22,23,4)          56.5238         estimate D2E/DX2                !
 ! D110  D(21,22,23,39)        -63.8751         estimate D2E/DX2                !
 ! D111  D(21,22,23,40)        179.0012         estimate D2E/DX2                !
 ! D112  D(24,22,23,4)        -123.2045         estimate D2E/DX2                !
 ! D113  D(24,22,23,39)        116.3965         estimate D2E/DX2                !
 ! D114  D(24,22,23,40)         -0.7272         estimate D2E/DX2                !
 --------------------------------------------------------------------------------
 Trust Radius=3.00D-01 FncErr=1.00D-07 GrdErr=1.00D-06 EigMax=2.50D+02 EigMin=1.00D-04
 Number of steps in this run=    240 maximum allowed number of steps=    240.
 GradGradGradGradGradGradGradGradGradGradGradGradGradGradGradGradGradGrad

 Leave Link  103 at Thu Jan  9 14:28:31 2025, MaxMem=  4026531840 cpu:               0.4 elap:               0.0
 (Enter /usr/local/intel/g16/l202.exe)
                          Input orientation:                          
 ---------------------------------------------------------------------
 Center     Atomic      Atomic             Coordinates (Angstroms)
 Number     Number       Type             X           Y           Z
 ---------------------------------------------------------------------
      1          8           0        0.441943    1.282836   -1.485928
      2          7           0        0.231840    0.527697   -0.421928
      3          6           0        1.381066   -0.318276    0.044344
      4          6           0       -1.211245    0.314057   -0.055080
      5          6           0        2.686487    0.504328   -0.087177
      6          6           0        1.495573   -1.627074   -0.799023
      7          6           0       -1.817088   -0.690200   -1.082825
      8          6           0       -1.946156    1.676916   -0.142245
      9          1           0        2.838441    0.734591   -1.144048
     10          1           0        3.510202   -0.149233    0.228667
     11          1           0        0.658266   -2.291303   -0.553661
     12          1           0        2.399601   -2.144538   -0.451295
     13          1           0       -1.358070   -1.674893   -0.934616
     14          1           0       -1.524478   -0.340057   -2.079412
     15          1           0       -2.944472    1.530190    0.288109
     16          1           0       -2.080880    1.933038   -1.197675
     17          6           0        1.570830   -1.446032   -2.322671
     18          6           0        2.731548    1.819226    0.707511
     19          6           0       -1.249944    2.849874    0.566067
     20          6           0       -3.346445   -0.847943   -1.034554
     21          6           0        1.146324   -0.720362    1.525034
     22          6           0       -0.253687   -1.254135    1.717899
     23          6           0       -1.326603   -0.241595    1.390187
     24          8           0       -0.501542   -2.409270    2.101626
     25          1           0        2.450647   -0.869285   -2.622371
     26          1           0        0.690762   -0.926657   -2.710135
     27          1           0        1.632179   -2.427171   -2.805732
     28          1           0        3.653574    2.360846    0.472416
     29          1           0        2.718207    1.657557    1.791129
     30          1           0        1.889061    2.462574    0.439644
     31          1           0       -0.997314    2.621340    1.608725
     32          1           0       -1.909027    3.724371    0.573239
     33          1           0       -0.330736    3.121545    0.042051
     34          1           0       -3.859162    0.082059   -1.297279
     35          1           0       -3.699754   -1.168152   -0.048268
     36          1           0       -3.657370   -1.611690   -1.754770
     37          1           0        1.265682    0.158890    2.167238
     38          1           0        1.881835   -1.474034    1.816287
     39          1           0       -1.225849    0.585475    2.103325
     40          1           0       -2.311395   -0.690558    1.531545
 ---------------------------------------------------------------------
                    Distance matrix (angstroms):
                    1          2          3          4          5
     1  O    0.000000
     2  N    1.321542   0.000000
     3  C    2.405669   1.501266   0.000000
     4  C    2.391420   1.504232   2.670170   0.000000
     5  C    2.756911   2.477478   1.548580   3.902505   0.000000
     6  C    3.170103   2.526313   1.561196   3.412961   2.543202
     7  C    3.026315   2.473492   3.411309   1.559435   4.764494
     8  C    2.768357   2.478426   3.884072   1.550831   4.779056
     9  H    2.482067   2.712680   2.155167   4.214577   1.092285
    10  H    3.795375   3.410156   2.143775   4.752601   1.097910
    11  H    3.700052   2.854112   2.184693   3.245236   3.485232
    12  H    4.080415   3.441059   2.149024   4.386329   2.689122
    13  H    3.506017   2.764429   3.209617   2.179693   4.671787
    14  H    2.617788   2.566107   3.599028   2.150326   4.734365
    15  H    3.830953   3.405599   4.710258   2.144955   5.735933
    16  H    2.621162   2.815216   4.312319   2.163998   5.099236
    17  C    3.069405   3.049807   2.628803   3.997477   3.169547
    18  C    3.215771   3.031867   2.613906   4.288671   1.537048
    19  C    3.086871   2.926487   4.151094   2.611070   4.628585
    20  C    4.369879   3.882244   4.877902   2.620819   6.254792
    21  C    3.684406   2.486884   1.552166   3.020747   2.543854
    22  C    4.145435   2.826574   2.519729   2.553350   3.872353
    23  C    3.704549   2.510840   3.024673   1.552692   4.340956
    24  O    5.233771   3.941059   3.485524   3.545641   4.841843
    25  H    3.155633   3.422954   2.925574   4.626093   2.893033
    26  H    2.538199   2.749845   2.904101   3.493754   3.593125
    27  H    4.113720   4.046568   3.554354   4.813053   4.134706
    28  H    3.913028   3.983535   3.539101   5.304155   2.166809
    29  H    4.007605   3.515142   2.956877   4.544675   2.204309
    30  H    2.682119   2.689319   2.854373   3.804310   2.179026
    31  H    3.666051   3.165077   4.092105   2.852642   4.574736
    32  H    3.965895   3.973964   5.239030   3.537220   5.650095
    33  H    2.512489   2.694405   3.842218   2.943929   3.996268
    34  H    4.469559   4.207271   5.424040   2.933998   6.669946
    35  H    5.022735   4.298018   5.152242   2.896492   6.601725
    36  H    5.025428   4.634587   5.504141   3.546967   6.892236
    37  H    3.909913   2.812228   2.178917   3.331357   2.687080
    38  H    4.536325   3.426225   2.174012   4.033166   2.860866
    39  H    4.018778   2.916350   3.442699   2.175452   4.484558
    40  H    4.536551   3.430488   3.998078   2.176456   5.387656
                    6          7          8          9         10
     6  C    0.000000
     7  C    3.454273   0.000000
     8  C    4.815932   2.550409   0.000000
     9  H    2.738576   4.869058   4.978349   0.000000
    10  H    2.701646   5.512955   5.765782   1.765433   0.000000
    11  H    1.096579   2.995150   4.764351   3.775944   3.651580
    12  H    1.098158   4.504930   5.795224   2.993638   2.382651
    13  H    2.857263   1.096487   3.494041   4.843571   5.232680
    14  H    3.523708   1.096087   2.828181   4.589644   5.541809
    15  H    5.555553   2.842637   1.096981   6.010502   6.669843
    16  H    5.062049   2.638968   1.094386   5.063484   6.134371
    17  C    1.536211   3.685985   5.184231   2.784081   3.457192
    18  C    3.959073   5.494780   4.756391   2.148518   2.170351
    19  C    5.426269   3.946216   1.536960   4.910581   5.636264
    20  C    4.909955   1.538228   3.021910   6.385078   7.006963
    21  C    2.518996   3.947613   4.253257   3.479101   2.755844
    22  C    3.087700   3.256732   3.862078   4.659080   4.195889
    23  C    3.831040   2.560783   2.532366   4.972211   4.975173
    24  O    3.607501   3.850531   4.880449   5.619052   4.970899
    25  H    2.193401   4.540466   5.653852   2.215455   3.125628
    26  H    2.188756   2.998893   4.508435   3.134469   4.146105
    27  H    2.164647   4.228820   6.061532   3.770013   4.233621
    28  H    4.709250   6.454130   5.674729   2.433537   2.525958
    29  H    4.358041   5.860075   5.049217   3.079218   2.516552
    30  H    4.291194   5.098376   3.957871   2.528899   3.081257
    31  H    5.482769   4.345431   2.204117   5.084348   5.467937
    32  H    6.489404   4.715871   2.169186   5.867394   6.670201
    33  H    5.156762   4.243111   2.174971   4.141022   5.048328
    34  H    5.642923   2.193728   2.745408   6.731060   7.529245
    35  H    5.269314   2.200722   3.343404   6.897040   7.286862
    36  H    5.240850   2.165015   4.042700   6.933511   7.579373
    37  H    3.470046   4.559313   4.237218   3.710744   2.981756
    38  H    2.648106   4.764586   5.330839   3.815325   2.631960
    39  H    4.552487   3.482594   2.598590   5.204433   5.146292
    40  H    4.560879   2.660690   2.922312   5.975840   5.990118
                   11         12         13         14         15
    11  H    0.000000
    12  H    1.750505   0.000000
    13  H    2.142592   3.817625   0.000000
    14  H    3.301462   4.615768   1.766363   0.000000
    15  H    5.319032   6.527592   3.779456   3.334571   0.000000
    16  H    5.075700   6.103967   3.689013   2.500801   1.765115
    17  C    2.162557   2.162596   3.249235   3.295950   6.005166
    18  C    4.773416   4.143000   5.624093   5.526590   5.698828
    19  C    5.597031   6.268840   4.768360   4.153262   2.165699
    20  C    4.283953   5.919324   2.155799   2.160842   2.750734
    21  C    2.650854   2.739499   3.637719   4.502205   4.830070
    22  C    2.658451   3.540926   2.903883   4.107313   4.127601
    23  C    3.452471   4.571307   2.731308   3.476631   2.640322
    24  O    2.899934   3.873515   3.239092   4.775889   4.977559
    25  H    3.084530   2.518422   4.243094   4.046790   6.582984
    26  H    2.552194   3.083135   2.812479   2.376804   5.314178
    27  H    2.457395   2.492427   3.606742   3.853319   6.795461
    28  H    5.627361   4.766988   6.586616   6.373298   6.652681
    29  H    5.033378   4.425596   5.928823   6.080454   5.860139
    30  H    5.010076   4.720159   5.436091   5.084548   4.924971
    31  H    5.617021   6.204539   5.005631   4.759215   2.593465
    32  H    6.636959   7.352417   5.632871   4.868676   2.442924
    33  H    5.534611   5.952290   5.001511   4.231822   3.069946
    34  H    5.156837   6.696681   3.077965   2.498132   2.333923
    35  H    4.528712   6.190145   2.554581   3.089193   2.822171
    36  H    4.530922   6.218510   2.442013   2.504330   3.814838
    37  H    3.711562   3.667188   4.457391   5.105681   4.810092
    38  H    2.789570   2.420658   4.254973   5.297673   5.886759
    39  H    4.345724   5.207969   3.788909   4.294308   2.672295
    40  H    3.966025   5.314056   2.821293   3.712290   2.622716
                   16         17         18         19         20
    16  H    0.000000
    17  C    5.100854   0.000000
    18  C    5.177079   4.603388   0.000000
    19  C    2.154490   5.895454   4.115157   0.000000
    20  C    3.059758   5.118256   6.862258   4.542153   0.000000
    21  C    4.986835   3.938481   3.103351   4.405486   5.172305
    22  C    4.690126   4.437555   4.402052   4.377458   4.160065
    23  C    3.463379   4.861183   4.602349   3.200349   3.213532
    24  O    5.677617   4.979654   5.502418   5.529615   4.512964
    25  H    5.515207   1.093862   4.288952   6.139434   6.010648
    26  H    4.259975   1.092885   4.835802   5.363024   4.371820
    27  H    5.948452   1.095329   5.619909   6.893683   5.515227
    28  H    5.988004   5.161652   1.094876   4.928733   7.846499
    29  H    5.660395   5.279402   1.095693   4.320720   7.144370
    30  H    4.326853   4.796755   1.093359   3.165334   6.367363
    31  H    3.086058   6.212468   3.919182   1.096898   4.953914
    32  H    2.524786   6.872319   5.018221   1.095074   5.055415
    33  H    2.452035   5.483669   3.393590   1.092402   5.100041
    34  H    2.568722   5.733350   7.104533   4.235667   1.093987
    35  H    3.682291   5.747102   7.131429   4.745894   1.095500
    36  H    3.919282   5.261561   7.658478   5.575620   1.094849
    37  H    5.066529   4.777884   2.652599   4.016655   5.704113
    38  H    6.032845   4.150721   3.577284   5.483363   5.987837
    39  H    3.666552   5.615859   4.373949   2.737014   4.049432
    40  H    3.792761   5.522444   5.692919   3.820142   2.771455
                   21         22         23         24         25
    21  C    0.000000
    22  C    1.510676   0.000000
    23  C    2.522453   1.511218   0.000000
    24  O    2.429060   1.242182   2.426043   0.000000
    25  H    4.350219   5.128301   5.546371   5.779543   0.000000
    26  H    4.264593   4.539462   4.620791   5.174241   1.763006
    27  H    4.680255   5.039419   5.580042   5.351191   1.769328
    28  H    4.109519   5.466809   5.693607   6.532482   4.632331
    29  H    2.862887   4.161186   4.486426   5.196371   5.092691
    30  H    3.443953   4.476520   4.307732   5.675564   4.559890
    31  H    3.971040   3.947684   2.890084   5.078954   6.478817
    32  H    5.476928   5.369909   4.090906   6.475997   7.093684
    33  H    4.375065   4.686254   3.757650   5.904315   5.546347
    34  H    5.802088   4.886324   3.706896   5.388217   6.517255
    35  H    5.114711   3.873257   2.925663   4.048577   6.674036
    36  H    5.884476   4.875688   4.147335   5.046501   6.213837
    37  H    1.095334   2.122976   2.735715   3.118146   5.040004
    38  H    1.092624   2.149067   3.463314   2.576154   4.515634
    39  H    2.768905   2.116085   1.096705   3.081091   6.161587
    40  H    3.457854   2.141614   1.091497   2.560182   6.321709
                   26         27         28         29         30
    26  H    0.000000
    27  H    1.773964   0.000000
    28  H    5.451106   6.144705   0.000000
    29  H    5.572259   6.244645   1.763103   0.000000
    30  H    4.779531   5.874356   1.767747   1.778215   0.000000
    31  H    5.838701   7.203411   4.794769   3.842817   3.118191
    32  H    6.258715   7.861237   5.728167   5.212127   4.004429
    33  H    5.000593   6.538437   4.079044   3.807701   2.349430
    34  H    4.869854   6.223061   8.047726   7.435203   6.459553
    35  H    5.140086   6.133372   8.172905   7.249706   6.682446
    36  H    4.504247   5.454251   8.613437   7.994333   7.223432
    37  H    5.029683   5.617158   3.663749   2.120681   2.946208
    38  H    4.712406   4.725871   4.432985   3.241452   4.170381
    39  H    5.397160   6.429868   5.442479   4.099074   3.999250
    40  H    5.201974   6.113884   6.783338   5.556791   5.364543
                   31         32         33         34         35
    31  H    0.000000
    32  H    1.766389   0.000000
    33  H    1.774542   1.771034   0.000000
    34  H    4.804475   4.535229   4.845830   0.000000
    35  H    4.940552   5.246881   5.455267   1.774392   0.000000
    36  H    6.025574   6.078641   6.057935   1.766014   1.763710
    37  H    3.390685   5.033117   3.980238   6.186502   5.596880
    38  H    5.010456   6.552802   5.400253   6.713774   5.892730
    39  H    2.107511   3.558169   3.388470   4.330343   3.718167
    40  H    3.563907   4.535620   4.546838   3.315835   2.156721
                   36         37         38         39         40
    36  H    0.000000
    37  H    6.538619   0.000000
    38  H    6.591979   1.780239   0.000000
    39  H    5.062087   2.528594   3.739207   0.000000
    40  H    3.668787   3.731105   4.275288   1.770198   0.000000
 Stoichiometry    C13H24NO2(2)
 Framework group  C1[X(C13H24NO2)]
 Deg. of freedom   114
 Full point group                 C1      NOp   1
 Largest Abelian subgroup         C1      NOp   1
 Largest concise Abelian subgroup C1      NOp   1
                         Standard orientation:                         
 ---------------------------------------------------------------------
 Center     Atomic      Atomic             Coordinates (Angstroms)
 Number     Number       Type             X           Y           Z
 ---------------------------------------------------------------------
      1          8           0       -0.441943    1.282836    1.485928
      2          7           0       -0.231840    0.527697    0.421928
      3          6           0       -1.381066   -0.318276   -0.044344
      4          6           0        1.211245    0.314057    0.055080
      5          6           0       -2.686487    0.504328    0.087177
      6          6           0       -1.495573   -1.627074    0.799023
      7          6           0        1.817088   -0.690200    1.082825
      8          6           0        1.946156    1.676916    0.142245
      9          1           0       -2.838441    0.734591    1.144048
     10          1           0       -3.510202   -0.149233   -0.228667
     11          1           0       -0.658266   -2.291303    0.553661
     12          1           0       -2.399601   -2.144538    0.451295
     13          1           0        1.358070   -1.674893    0.934616
     14          1           0        1.524478   -0.340057    2.079412
     15          1           0        2.944472    1.530190   -0.288109
     16          1           0        2.080880    1.933038    1.197675
     17          6           0       -1.570830   -1.446032    2.322671
     18          6           0       -2.731548    1.819226   -0.707511
     19          6           0        1.249944    2.849874   -0.566067
     20          6           0        3.346445   -0.847943    1.034554
     21          6           0       -1.146324   -0.720362   -1.525034
     22          6           0        0.253687   -1.254135   -1.717899
     23          6           0        1.326603   -0.241595   -1.390187
     24          8           0        0.501542   -2.409270   -2.101626
     25          1           0       -2.450647   -0.869285    2.622371
     26          1           0       -0.690762   -0.926657    2.710135
     27          1           0       -1.632179   -2.427171    2.805732
     28          1           0       -3.653574    2.360846   -0.472416
     29          1           0       -2.718207    1.657557   -1.791129
     30          1           0       -1.889061    2.462574   -0.439644
     31          1           0        0.997314    2.621340   -1.608725
     32          1           0        1.909027    3.724371   -0.573239
     33          1           0        0.330736    3.121545   -0.042051
     34          1           0        3.859162    0.082059    1.297279
     35          1           0        3.699754   -1.168152    0.048268
     36          1           0        3.657370   -1.611690    1.754770
     37          1           0       -1.265682    0.158890   -2.167238
     38          1           0       -1.881835   -1.474034   -1.816287
     39          1           0        1.225849    0.585475   -2.103325
     40          1           0        2.311395   -0.690558   -1.531545
 ---------------------------------------------------------------------
 Rotational constants (GHZ):           0.6036364           0.4812513           0.4301289
 Leave Link  202 at Thu Jan  9 14:28:31 2025, MaxMem=  4026531840 cpu:               0.1 elap:               0.0
 (Enter /usr/local/intel/g16/l301.exe)
 Standard basis: def2TZVP (5D, 7F)
 Ernie: Thresh=  0.10000D-02 Tol=  0.10000D-05 Strict=F.
 There are   720 symmetry adapted cartesian basis functions of A   symmetry.
 There are   640 symmetry adapted basis functions of A   symmetry.
   640 basis functions,  1008 primitive gaussians,   720 cartesian basis functions
    63 alpha electrons       62 beta electrons
       nuclear repulsion energy      1286.3102178081 Hartrees.
 IExCor= 4336 DFT=T Ex+Corr=M062X ExCW=0 ScaHFX=  0.540000
 ScaDFX=  1.000000  1.000000  1.000000  1.000000 ScalE2=  1.000000  1.000000
 IRadAn=      5 IRanWt=     -1 IRanGd=            0 ICorTp=0 IEmpDi=  4
 NAtoms=   40 NActive=   40 NUniq=   40 SFac= 1.00D+00 NAtFMM=   60 NAOKFM=F Big=F
 Integral buffers will be    131072 words long.
 Raffenetti 2 integral format.
 Two-electron integral symmetry is turned on.
 Leave Link  301 at Thu Jan  9 14:28:31 2025, MaxMem=  4026531840 cpu:               1.4 elap:               0.1
 (Enter /usr/local/intel/g16/l302.exe)
 NPDir=0 NMtPBC=     1 NCelOv=     1 NCel=       1 NClECP=     1 NCelD=      1
         NCelK=      1 NCelE2=     1 NClLst=     1 CellRange=     0.0.
 One-electron integrals computed using PRISM.
 One-electron integral symmetry used in STVInt
   1 Symmetry operations used in ECPInt.
 ECPInt:  NShTT=   37128 NPrTT=  108304 LenC2=   35292 LenP2D=   77194.
 LDataN:  DoStor=T MaxTD1= 6 Len=  172
 NBasis=   640 RedAO= T EigKep=  3.82D-05  NBF=   640
 NBsUse=   640 1.00D-06 EigRej= -1.00D+00 NBFU=   640
 Precomputing XC quadrature grid using
 IXCGrd= 4 IRadAn=           5 IRanWt=          -1 IRanGd=           0 AccXCQ= 0.00D+00.
 Generated NRdTot=       0 NPtTot=           0 NUsed=           0 NTot=          32
 NSgBfM=   714   713   713   714   714 MxSgAt=    40 MxSgA2=    40.
 Leave Link  302 at Thu Jan  9 14:28:33 2025, MaxMem=  4026531840 cpu:              31.6 elap:               1.6
 (Enter /usr/local/intel/g16/l303.exe)
 DipDrv:  MaxL=1.
 Leave Link  303 at Thu Jan  9 14:28:33 2025, MaxMem=  4026531840 cpu:               4.0 elap:               0.2
 (Enter /usr/local/intel/g16/l401.exe)
 ExpMin= 9.52D-02 ExpMax= 2.70D+04 ExpMxC= 9.22D+02 IAcc=3 IRadAn=         5 AccDes= 0.00D+00
 Harris functional with IExCor= 1009 and IRadAn=       5 diagonalized for initial guess.
 HarFok:  IExCor= 1009 AccDes= 0.00D+00 IRadAn=         5 IDoV= 1 UseB2=F ITyADJ=14
 ICtDFT=  3500011 ScaDFX=  1.000000  1.000000  1.000000  1.000000
 FoFCou: FMM=F IPFlag=           0 FMFlag=      100000 FMFlg1=           0
         NFxFlg=           0 DoJE=T BraDBF=F KetDBF=T FulRan=T
         wScrn=  0.000000 ICntrl=       500 IOpCl=  0 I1Cent=   200000004 NGrid=           0
         NMat0=    1 NMatS0=      1 NMatT0=    0 NMatD0=    1 NMtDS0=    0 NMtDT0=    0
 Petite list used in FoFCou.
 Harris En= -714.673233629345    
 JPrj=0 DoOrth=F DoCkMO=F.
 Initial guess <Sx>= 0.0000 <Sy>= 0.0000 <Sz>= 0.5000 <S**2>= 0.7500 S= 0.5000
 Leave Link  401 at Thu Jan  9 14:28:38 2025, MaxMem=  4026531840 cpu:             102.5 elap:               5.1
 (Enter /usr/local/intel/g16/l502.exe)
 Integral symmetry usage will be decided dynamically.
 UHF open shell SCF:
 Using DIIS extrapolation, IDIIS=  1040.
 NGot=  4026531840 LenX=  4025473082 LenY=  4024953962
 Requested convergence on RMS density matrix=1.00D-08 within 128 cycles.
 Requested convergence on MAX density matrix=1.00D-06.
 Requested convergence on             energy=1.00D-06.
 No special actions if energy rises.
 Fock matrices will be formed incrementally for  20 cycles.
 Integral accuracy reduced to 1.0D-05 until final iterations.

 Cycle   1  Pass 0  IDiag  1:
 FoFJK:  IHMeth= 1 ICntrl=       0 DoSepK=F KAlg= 0 I1Cent=           0 FoldK=F
 IRaf= 900000000 NMat=       1 IRICut=       1 DoRegI=T DoRafI=F ISym2E= 0 IDoP0=0 IntGTp=1.
 FoFCou: FMM=F IPFlag=           0 FMFlag=      100000 FMFlg1=           0
         NFxFlg=           0 DoJE=F BraDBF=F KetDBF=F FulRan=T
         wScrn=  0.000000 ICntrl=         0 IOpCl=  1 I1Cent=           0 NGrid=           0
         NMat0=    1 NMatS0=      1 NMatT0=    0 NMatD0=    1 NMtDS0=    0 NMtDT0=    0
 Symmetry not used in FoFCou.
 E= -714.327890842150    
 DIIS: error= 2.37D-02 at cycle   1 NSaved=   1.
 NSaved= 1 IEnMin= 1 EnMin= -714.327890842150     IErMin= 1 ErrMin= 2.37D-02
 ErrMax= 2.37D-02  0.00D+00 EMaxC= 1.00D-01 BMatC= 2.82D+00 BMatP= 2.82D+00
 IDIUse=3 WtCom= 7.63D-01 WtEn= 2.37D-01
 Coeff-Com:  0.100D+01
 Coeff-En:   0.100D+01
 Coeff:      0.100D+01
 Gap=     0.302 Goal=   None    Shift=    0.000
 Gap=     0.215 Goal=   None    Shift=    0.000
 GapD=    0.215 DampG=1.000 DampE=0.500 DampFc=0.5000 IDamp=-1.
 Damping current iteration by 5.00D-01
 RMSDP=3.84D-03 MaxDP=7.11D-01              OVMax= 1.91D-01

 Cycle   2  Pass 0  IDiag  1:
 RMSU=  1.92D-03    CP:  1.00D+00
 E= -714.609489726414     Delta-E=       -0.281598884264 Rises=F Damp=T
 DIIS: error= 4.48D-03 at cycle   2 NSaved=   2.
 NSaved= 2 IEnMin= 2 EnMin= -714.609489726414     IErMin= 2 ErrMin= 4.48D-03
 ErrMax= 4.48D-03  0.00D+00 EMaxC= 1.00D-01 BMatC= 2.35D-01 BMatP= 2.82D+00
 IDIUse=3 WtCom= 9.55D-01 WtEn= 4.48D-02
 Coeff-Com: -0.721D-02 0.101D+01
 Coeff-En:   0.000D+00 0.100D+01
 Coeff:     -0.689D-02 0.101D+01
 Gap=     0.310 Goal=   None    Shift=    0.000
 Gap=     0.301 Goal=   None    Shift=    0.000
 RMSDP=1.15D-03 MaxDP=1.84D-01 DE=-2.82D-01 OVMax= 1.39D-01

 Cycle   3  Pass 0  IDiag  1:
 RMSU=  1.06D-03    CP:  9.78D-01  7.78D-01
 E= -714.879048176050     Delta-E=       -0.269558449636 Rises=F Damp=F
 DIIS: error= 5.69D-03 at cycle   3 NSaved=   3.
 NSaved= 3 IEnMin= 3 EnMin= -714.879048176050     IErMin= 2 ErrMin= 4.48D-03
 ErrMax= 5.69D-03  0.00D+00 EMaxC= 1.00D-01 BMatC= 1.95D-01 BMatP= 2.35D-01
 IDIUse=3 WtCom= 9.43D-01 WtEn= 5.69D-02
 Coeff-Com: -0.695D-01 0.510D+00 0.560D+00
 Coeff-En:   0.000D+00 0.000D+00 0.100D+01
 Coeff:     -0.655D-01 0.481D+00 0.585D+00
 Gap=     0.282 Goal=   None    Shift=    0.000
 Gap=     0.290 Goal=   None    Shift=    0.000
 RMSDP=4.33D-04 MaxDP=2.73D-02 DE=-2.70D-01 OVMax= 8.55D-02

 Cycle   4  Pass 0  IDiag  1:
 RMSU=  4.02D-04    CP:  9.83D-01  8.52D-01  9.32D-01
 E= -714.907926317621     Delta-E=       -0.028878141571 Rises=F Damp=F
 DIIS: error= 2.72D-03 at cycle   4 NSaved=   4.
 NSaved= 4 IEnMin= 4 EnMin= -714.907926317621     IErMin= 4 ErrMin= 2.72D-03
 ErrMax= 2.72D-03  0.00D+00 EMaxC= 1.00D-01 BMatC= 4.33D-02 BMatP= 1.95D-01
 IDIUse=3 WtCom= 9.73D-01 WtEn= 2.72D-02
 Coeff-Com: -0.231D-01 0.703D-01 0.341D+00 0.612D+00
 Coeff-En:   0.000D+00 0.000D+00 0.203D+00 0.797D+00
 Coeff:     -0.224D-01 0.684D-01 0.337D+00 0.617D+00
 Gap=     0.279 Goal=   None    Shift=    0.000
 Gap=     0.294 Goal=   None    Shift=    0.000
 RMSDP=1.99D-04 MaxDP=1.95D-02 DE=-2.89D-02 OVMax= 1.76D-02

 Cycle   5  Pass 0  IDiag  1:
 RMSU=  1.08D-04    CP:  9.78D-01  8.11D-01  9.84D-01  6.69D-01
 E= -714.916245905244     Delta-E=       -0.008319587623 Rises=F Damp=F
 DIIS: error= 2.61D-04 at cycle   5 NSaved=   5.
 NSaved= 5 IEnMin= 5 EnMin= -714.916245905244     IErMin= 5 ErrMin= 2.61D-04
 ErrMax= 2.61D-04  0.00D+00 EMaxC= 1.00D-01 BMatC= 5.88D-04 BMatP= 4.33D-02
 IDIUse=3 WtCom= 9.97D-01 WtEn= 2.61D-03
 Coeff-Com: -0.366D-02 0.267D-02 0.965D-01 0.200D+00 0.705D+00
 Coeff-En:   0.000D+00 0.000D+00 0.000D+00 0.000D+00 0.100D+01
 Coeff:     -0.366D-02 0.267D-02 0.962D-01 0.199D+00 0.705D+00
 Gap=     0.278 Goal=   None    Shift=    0.000
 Gap=     0.294 Goal=   None    Shift=    0.000
 RMSDP=3.31D-05 MaxDP=2.00D-03 DE=-8.32D-03 OVMax= 8.36D-03

 Cycle   6  Pass 0  IDiag  1:
 RMSU=  3.10D-05    CP:  9.78D-01  8.13D-01  9.90D-01  6.91D-01  9.98D-01
 E= -714.916406592617     Delta-E=       -0.000160687374 Rises=F Damp=F
 DIIS: error= 2.16D-04 at cycle   6 NSaved=   6.
 NSaved= 6 IEnMin= 6 EnMin= -714.916406592617     IErMin= 6 ErrMin= 2.16D-04
 ErrMax= 2.16D-04  0.00D+00 EMaxC= 1.00D-01 BMatC= 1.39D-04 BMatP= 5.88D-04
 IDIUse=3 WtCom= 9.98D-01 WtEn= 2.16D-03
 Coeff-Com:  0.269D-02-0.992D-02-0.940D-02-0.219D-01 0.256D+00 0.783D+00
 Coeff-En:   0.000D+00 0.000D+00 0.000D+00 0.000D+00 0.000D+00 0.100D+01
 Coeff:      0.269D-02-0.990D-02-0.938D-02-0.219D-01 0.255D+00 0.783D+00
 Gap=     0.280 Goal=   None    Shift=    0.000
 Gap=     0.294 Goal=   None    Shift=    0.000
 RMSDP=2.95D-05 MaxDP=3.55D-03 DE=-1.61D-04 OVMax= 3.23D-03

 Cycle   7  Pass 0  IDiag  1:
 RMSU=  1.49D-05    CP:  9.78D-01  8.07D-01  9.95D-01  6.92D-01  1.19D+00
                    CP:  1.20D+00
 E= -714.916457157223     Delta-E=       -0.000050564606 Rises=F Damp=F
 DIIS: error= 7.94D-05 at cycle   7 NSaved=   7.
 NSaved= 7 IEnMin= 7 EnMin= -714.916457157223     IErMin= 7 ErrMin= 7.94D-05
 ErrMax= 7.94D-05  0.00D+00 EMaxC= 1.00D-01 BMatC= 2.45D-05 BMatP= 1.39D-04
 IDIUse=1 WtCom= 1.00D+00 WtEn= 0.00D+00
 Coeff-Com:  0.164D-02-0.324D-02-0.179D-01-0.500D-01-0.872D-01 0.141D+00
 Coeff-Com:  0.102D+01
 Coeff:      0.164D-02-0.324D-02-0.179D-01-0.500D-01-0.872D-01 0.141D+00
 Coeff:      0.102D+01
 Gap=     0.280 Goal=   None    Shift=    0.000
 Gap=     0.295 Goal=   None    Shift=    0.000
 RMSDP=1.85D-05 MaxDP=2.20D-03 DE=-5.06D-05 OVMax= 3.98D-03

 Cycle   8  Pass 0  IDiag  1:
 RMSU=  7.66D-06    CP:  9.77D-01  8.02D-01  9.98D-01  6.88D-01  1.29D+00
                    CP:  1.38D+00  1.31D+00
 E= -714.916470817330     Delta-E=       -0.000013660107 Rises=F Damp=F
 DIIS: error= 6.41D-05 at cycle   8 NSaved=   8.
 NSaved= 8 IEnMin= 8 EnMin= -714.916470817330     IErMin= 8 ErrMin= 6.41D-05
 ErrMax= 6.41D-05  0.00D+00 EMaxC= 1.00D-01 BMatC= 9.14D-06 BMatP= 2.45D-05
 IDIUse=1 WtCom= 1.00D+00 WtEn= 0.00D+00
 Coeff-Com:  0.491D-03-0.259D-03-0.673D-02-0.236D-01-0.823D-01-0.603D-01
 Coeff-Com:  0.527D+00 0.646D+00
 Coeff:      0.491D-03-0.259D-03-0.673D-02-0.236D-01-0.823D-01-0.603D-01
 Coeff:      0.527D+00 0.646D+00
 Gap=     0.280 Goal=   None    Shift=    0.000
 Gap=     0.294 Goal=   None    Shift=    0.000
 RMSDP=7.16D-06 MaxDP=8.17D-04 DE=-1.37D-05 OVMax= 1.03D-03

 Initial convergence to 1.0D-05 achieved.  Increase integral accuracy.
 Cycle   9  Pass 1  IDiag  1:
 E= -714.916526908722     Delta-E=       -0.000056091392 Rises=F Damp=F
 DIIS: error= 1.00D-04 at cycle   1 NSaved=   1.
 NSaved= 1 IEnMin= 1 EnMin= -714.916526908722     IErMin= 1 ErrMin= 1.00D-04
 ErrMax= 1.00D-04  0.00D+00 EMaxC= 1.00D-01 BMatC= 4.80D-05 BMatP= 4.80D-05
 IDIUse=3 WtCom= 9.99D-01 WtEn= 1.00D-03
 Coeff-Com:  0.100D+01
 Coeff-En:   0.100D+01
 Coeff:      0.100D+01
 Gap=     0.280 Goal=   None    Shift=    0.000
 Gap=     0.294 Goal=   None    Shift=    0.000
 RMSDP=7.16D-06 MaxDP=8.17D-04 DE=-5.61D-05 OVMax= 6.19D-04

 Cycle  10  Pass 1  IDiag  1:
 RMSU=  8.64D-05    CP:  1.00D+00
 E= -714.916532919741     Delta-E=       -0.000006011019 Rises=F Damp=F
 DIIS: error= 2.78D-05 at cycle   2 NSaved=   2.
 NSaved= 2 IEnMin= 2 EnMin= -714.916532919741     IErMin= 2 ErrMin= 2.78D-05
 ErrMax= 2.78D-05  0.00D+00 EMaxC= 1.00D-01 BMatC= 2.64D-06 BMatP= 4.80D-05
 IDIUse=1 WtCom= 1.00D+00 WtEn= 0.00D+00
 Coeff-Com:  0.573D-01 0.943D+00
 Coeff:      0.573D-01 0.943D+00
 Gap=     0.280 Goal=   None    Shift=    0.000
 Gap=     0.294 Goal=   None    Shift=    0.000
 RMSDP=5.87D-06 MaxDP=1.01D-03 DE=-6.01D-06 OVMax= 3.87D-04

 Cycle  11  Pass 1  IDiag  1:
 RMSU=  4.66D-06    CP:  1.00D+00  1.04D+00
 E= -714.916532609783     Delta-E=        0.000000309958 Rises=F Damp=F
 DIIS: error= 4.25D-05 at cycle   3 NSaved=   3.
 NSaved= 3 IEnMin= 2 EnMin= -714.916532919741     IErMin= 2 ErrMin= 2.78D-05
 ErrMax= 4.25D-05  0.00D+00 EMaxC= 1.00D-01 BMatC= 5.52D-06 BMatP= 2.64D-06
 IDIUse=1 WtCom= 1.00D+00 WtEn= 0.00D+00
 Coeff-Com: -0.133D-01 0.602D+00 0.411D+00
 Coeff:     -0.133D-01 0.602D+00 0.411D+00
 Gap=     0.280 Goal=   None    Shift=    0.000
 Gap=     0.294 Goal=   None    Shift=    0.000
 RMSDP=2.27D-06 MaxDP=3.96D-04 DE= 3.10D-07 OVMax= 2.28D-04

 Cycle  12  Pass 1  IDiag  1:
 RMSU=  1.25D-06    CP:  1.00D+00  1.04D+00  6.09D-01
 E= -714.916533621691     Delta-E=       -0.000001011908 Rises=F Damp=F
 DIIS: error= 6.16D-06 at cycle   4 NSaved=   4.
 NSaved= 4 IEnMin= 4 EnMin= -714.916533621691     IErMin= 4 ErrMin= 6.16D-06
 ErrMax= 6.16D-06  0.00D+00 EMaxC= 1.00D-01 BMatC= 6.36D-08 BMatP= 2.64D-06
 IDIUse=1 WtCom= 1.00D+00 WtEn= 0.00D+00
 Coeff-Com: -0.105D-02-0.102D+00-0.356D-01 0.114D+01
 Coeff:     -0.105D-02-0.102D+00-0.356D-01 0.114D+01
 Gap=     0.280 Goal=   None    Shift=    0.000
 Gap=     0.294 Goal=   None    Shift=    0.000
 RMSDP=7.97D-07 MaxDP=6.99D-05 DE=-1.01D-06 OVMax= 2.47D-04

 Cycle  13  Pass 1  IDiag  1:
 RMSU=  5.46D-07    CP:  1.00D+00  1.04D+00  6.76D-01  1.38D+00
 E= -714.916533681196     Delta-E=       -0.000000059504 Rises=F Damp=F
 DIIS: error= 6.59D-06 at cycle   5 NSaved=   5.
 NSaved= 5 IEnMin= 5 EnMin= -714.916533681196     IErMin= 4 ErrMin= 6.16D-06
 ErrMax= 6.59D-06  0.00D+00 EMaxC= 1.00D-01 BMatC= 7.85D-08 BMatP= 6.36D-08
 IDIUse=1 WtCom= 1.00D+00 WtEn= 0.00D+00
 Coeff-Com:  0.617D-02-0.406D+00-0.250D+00 0.874D+00 0.776D+00
 Coeff:      0.617D-02-0.406D+00-0.250D+00 0.874D+00 0.776D+00
 Gap=     0.280 Goal=   None    Shift=    0.000
 Gap=     0.294 Goal=   None    Shift=    0.000
 RMSDP=7.81D-07 MaxDP=5.54D-05 DE=-5.95D-08 OVMax= 1.62D-04

 Cycle  14  Pass 1  IDiag  1:
 RMSU=  3.21D-07    CP:  1.00D+00  1.04D+00  7.37D-01  1.84D+00  1.60D+00
 E= -714.916533714207     Delta-E=       -0.000000033012 Rises=F Damp=F
 DIIS: error= 1.16D-06 at cycle   6 NSaved=   6.
 NSaved= 6 IEnMin= 6 EnMin= -714.916533714207     IErMin= 6 ErrMin= 1.16D-06
 ErrMax= 1.16D-06  0.00D+00 EMaxC= 1.00D-01 BMatC= 5.84D-09 BMatP= 6.36D-08
 IDIUse=1 WtCom= 1.00D+00 WtEn= 0.00D+00
 Coeff-Com:  0.314D-02-0.176D+00-0.112D+00 0.272D+00 0.359D+00 0.654D+00
 Coeff:      0.314D-02-0.176D+00-0.112D+00 0.272D+00 0.359D+00 0.654D+00
 Gap=     0.280 Goal=   None    Shift=    0.000
 Gap=     0.294 Goal=   None    Shift=    0.000
 RMSDP=1.33D-07 MaxDP=1.25D-05 DE=-3.30D-08 OVMax= 5.19D-05

 Cycle  15  Pass 1  IDiag  1:
 RMSU=  9.40D-08    CP:  1.00D+00  1.04D+00  7.36D-01  1.88D+00  1.70D+00
                    CP:  1.10D+00
 E= -714.916533716332     Delta-E=       -0.000000002124 Rises=F Damp=F
 DIIS: error= 5.72D-07 at cycle   7 NSaved=   7.
 NSaved= 7 IEnMin= 7 EnMin= -714.916533716332     IErMin= 7 ErrMin= 5.72D-07
 ErrMax= 5.72D-07  0.00D+00 EMaxC= 1.00D-01 BMatC= 1.12D-09 BMatP= 5.84D-09
 IDIUse=1 WtCom= 1.00D+00 WtEn= 0.00D+00
 Coeff-Com:  0.515D-03-0.210D-01-0.153D-01-0.915D-02 0.294D-01 0.303D+00
 Coeff-Com:  0.713D+00
 Coeff:      0.515D-03-0.210D-01-0.153D-01-0.915D-02 0.294D-01 0.303D+00
 Coeff:      0.713D+00
 Gap=     0.280 Goal=   None    Shift=    0.000
 Gap=     0.294 Goal=   None    Shift=    0.000
 RMSDP=8.69D-08 MaxDP=8.10D-06 DE=-2.12D-09 OVMax= 1.03D-05

 Cycle  16  Pass 1  IDiag  1:
 RMSU=  4.06D-08    CP:  1.00D+00  1.04D+00  7.35D-01  1.91D+00  1.77D+00
                    CP:  1.24D+00  1.08D+00
 E= -714.916533716689     Delta-E=       -0.000000000357 Rises=F Damp=F
 DIIS: error= 9.27D-08 at cycle   8 NSaved=   8.
 NSaved= 8 IEnMin= 8 EnMin= -714.916533716689     IErMin= 8 ErrMin= 9.27D-08
 ErrMax= 9.27D-08  0.00D+00 EMaxC= 1.00D-01 BMatC= 7.36D-11 BMatP= 1.12D-09
 IDIUse=1 WtCom= 1.00D+00 WtEn= 0.00D+00
 Coeff-Com: -0.283D-03 0.186D-01 0.111D-01-0.397D-01-0.432D-01 0.115D-01
 Coeff-Com:  0.225D+00 0.817D+00
 Coeff:     -0.283D-03 0.186D-01 0.111D-01-0.397D-01-0.432D-01 0.115D-01
 Coeff:      0.225D+00 0.817D+00
 Gap=     0.280 Goal=   None    Shift=    0.000
 Gap=     0.294 Goal=   None    Shift=    0.000
 RMSDP=2.99D-08 MaxDP=3.92D-06 DE=-3.57D-10 OVMax= 4.23D-06

 Cycle  17  Pass 1  IDiag  1:
 RMSU=  1.80D-08    CP:  1.00D+00  1.04D+00  7.31D-01  1.91D+00  1.79D+00
                    CP:  1.25D+00  1.15D+00  1.21D+00
 E= -714.916533716712     Delta-E=       -0.000000000023 Rises=F Damp=F
 DIIS: error= 5.74D-08 at cycle   9 NSaved=   9.
 NSaved= 9 IEnMin= 9 EnMin= -714.916533716712     IErMin= 9 ErrMin= 5.74D-08
 ErrMax= 5.74D-08  0.00D+00 EMaxC= 1.00D-01 BMatC= 9.61D-12 BMatP= 7.36D-11
 IDIUse=1 WtCom= 1.00D+00 WtEn= 0.00D+00
 Coeff-Com: -0.756D-04 0.375D-02 0.242D-02-0.278D-02-0.750D-02-0.271D-01
 Coeff-Com: -0.461D-01 0.783D-01 0.999D+00
 Coeff:     -0.756D-04 0.375D-02 0.242D-02-0.278D-02-0.750D-02-0.271D-01
 Coeff:     -0.461D-01 0.783D-01 0.999D+00
 Gap=     0.280 Goal=   None    Shift=    0.000
 Gap=     0.294 Goal=   None    Shift=    0.000
 RMSDP=1.21D-08 MaxDP=1.29D-06 DE=-2.25D-11 OVMax= 3.41D-06

 Cycle  18  Pass 1  IDiag  1:
 RMSU=  6.33D-09    CP:  1.00D+00  1.04D+00  7.31D-01  1.91D+00  1.79D+00
                    CP:  1.26D+00  1.19D+00  1.38D+00  1.35D+00
 E= -714.916533716726     Delta-E=       -0.000000000015 Rises=F Damp=F
 DIIS: error= 4.88D-08 at cycle  10 NSaved=  10.
 NSaved=10 IEnMin=10 EnMin= -714.916533716726     IErMin=10 ErrMin= 4.88D-08
 ErrMax= 4.88D-08  0.00D+00 EMaxC= 1.00D-01 BMatC= 4.17D-12 BMatP= 9.61D-12
 IDIUse=1 WtCom= 1.00D+00 WtEn= 0.00D+00
 Coeff-Com:  0.554D-04-0.403D-02-0.237D-02 0.103D-01 0.993D-02-0.123D-01
 Coeff-Com: -0.776D-01-0.205D+00 0.324D+00 0.957D+00
 Coeff:      0.554D-04-0.403D-02-0.237D-02 0.103D-01 0.993D-02-0.123D-01
 Coeff:     -0.776D-01-0.205D+00 0.324D+00 0.957D+00
 Gap=     0.280 Goal=   None    Shift=    0.000
 Gap=     0.294 Goal=   None    Shift=    0.000
 RMSDP=8.30D-09 MaxDP=6.11D-07 DE=-1.48D-11 OVMax= 2.94D-06

 SCF Done:  E(UM062X) =  -714.916533717     A.U. after   18 cycles
            NFock= 18  Conv=0.83D-08     -V/T= 2.0060
 <Sx>= 0.0000 <Sy>= 0.0000 <Sz>= 0.5000 <S**2>= 0.7555 S= 0.5027
 <L.S>=  0.00000000000    
 KE= 7.106422743665D+02 PE=-4.234891550537D+03 EE= 1.523022524646D+03
 Annihilation of the first spin contaminant:
 S**2 before annihilation     0.7555,   after     0.7500
 Leave Link  502 at Thu Jan  9 14:42:38 2025, MaxMem=  4026531840 cpu:           16788.1 elap:             839.7
 (Enter /usr/local/intel/g16/l601.exe)
 Copying SCF densities to generalized density rwf, IOpCl= 1 IROHF=0.

 **********************************************************************

            Population analysis using the SCF Density.

 **********************************************************************

 Orbital symmetries:
 Alpha Orbitals:
       Occupied  (A) (A) (A) (A) (A) (A) (A) (A) (A) (A) (A) (A)
                 (A) (A) (A) (A) (A) (A) (A) (A) (A) (A) (A) (A)
                 (A) (A) (A) (A) (A) (A) (A) (A) (A) (A) (A) (A)
                 (A) (A) (A) (A) (A) (A) (A) (A) (A) (A) (A) (A)
                 (A) (A) (A) (A) (A) (A) (A) (A) (A) (A) (A) (A)
                 (A) (A) (A)
       Virtual   (A) (A) (A) (A) (A) (A) (A) (A) (A) (A) (A) (A)
                 (A) (A) (A) (A) (A) (A) (A) (A) (A) (A) (A) (A)
                 (A) (A) (A) (A) (A) (A) (A) (A) (A) (A) (A) (A)
                 (A) (A) (A) (A) (A) (A) (A) (A) (A) (A) (A) (A)
                 (A) (A) (A) (A) (A) (A) (A) (A) (A) (A) (A) (A)
                 (A) (A) (A) (A) (A) (A) (A) (A) (A) (A) (A) (A)
                 (A) (A) (A) (A) (A) (A) (A) (A) (A) (A) (A) (A)
                 (A) (A) (A) (A) (A) (A) (A) (A) (A) (A) (A) (A)
                 (A) (A) (A) (A) (A) (A) (A) (A) (A) (A) (A) (A)
                 (A) (A) (A) (A) (A) (A) (A) (A) (A) (A) (A) (A)
                 (A) (A) (A) (A) (A) (A) (A) (A) (A) (A) (A) (A)
                 (A) (A) (A) (A) (A) (A) (A) (A) (A) (A) (A) (A)
                 (A) (A) (A) (A) (A) (A) (A) (A) (A) (A) (A) (A)
                 (A) (A) (A) (A) (A) (A) (A) (A) (A) (A) (A) (A)
                 (A) (A) (A) (A) (A) (A) (A) (A) (A) (A) (A) (A)
                 (A) (A) (A) (A) (A) (A) (A) (A) (A) (A) (A) (A)
                 (A) (A) (A) (A) (A) (A) (A) (A) (A) (A) (A) (A)
                 (A) (A) (A) (A) (A) (A) (A) (A) (A) (A) (A) (A)
                 (A) (A) (A) (A) (A) (A) (A) (A) (A) (A) (A) (A)
                 (A) (A) (A) (A) (A) (A) (A) (A) (A) (A) (A) (A)
                 (A) (A) (A) (A) (A) (A) (A) (A) (A) (A) (A) (A)
                 (A) (A) (A) (A) (A) (A) (A) (A) (A) (A) (A) (A)
                 (A) (A) (A) (A) (A) (A) (A) (A) (A) (A) (A) (A)
                 (A) (A) (A) (A) (A) (A) (A) (A) (A) (A) (A) (A)
                 (A) (A) (A) (A) (A) (A) (A) (A) (A) (A) (A) (A)
                 (A) (A) (A) (A) (A) (A) (A) (A) (A) (A) (A) (A)
                 (A) (A) (A) (A) (A) (A) (A) (A) (A) (A) (A) (A)
                 (A) (A) (A) (A) (A) (A) (A) (A) (A) (A) (A) (A)
                 (A) (A) (A) (A) (A) (A) (A) (A) (A) (A) (A) (A)
                 (A) (A) (A) (A) (A) (A) (A) (A) (A) (A) (A) (A)
                 (A) (A) (A) (A) (A) (A) (A) (A) (A) (A) (A) (A)
                 (A) (A) (A) (A) (A) (A) (A) (A) (A) (A) (A) (A)
                 (A) (A) (A) (A) (A) (A) (A) (A) (A) (A) (A) (A)
                 (A) (A) (A) (A) (A) (A) (A) (A) (A) (A) (A) (A)
                 (A) (A) (A) (A) (A) (A) (A) (A) (A) (A) (A) (A)
                 (A) (A) (A) (A) (A) (A) (A) (A) (A) (A) (A) (A)
                 (A) (A) (A) (A) (A) (A) (A) (A) (A) (A) (A) (A)
                 (A) (A) (A) (A) (A) (A) (A) (A) (A) (A) (A) (A)
                 (A) (A) (A) (A) (A) (A) (A) (A) (A) (A) (A) (A)
                 (A) (A) (A) (A) (A) (A) (A) (A) (A) (A) (A) (A)
                 (A) (A) (A) (A) (A) (A) (A) (A) (A) (A) (A) (A)
                 (A) (A) (A) (A) (A) (A) (A) (A) (A) (A) (A) (A)
                 (A) (A) (A) (A) (A) (A) (A) (A) (A) (A) (A) (A)
                 (A) (A) (A) (A) (A) (A) (A) (A) (A) (A) (A) (A)
                 (A) (A) (A) (A) (A) (A) (A) (A) (A) (A) (A) (A)
                 (A) (A) (A) (A) (A) (A) (A) (A) (A) (A) (A) (A)
                 (A) (A) (A) (A) (A) (A) (A) (A) (A) (A) (A) (A)
                 (A) (A) (A) (A) (A) (A) (A) (A) (A) (A) (A) (A)
                 (A)
 Beta  Orbitals:
       Occupied  (A) (A) (A) (A) (A) (A) (A) (A) (A) (A) (A) (A)
                 (A) (A) (A) (A) (A) (A) (A) (A) (A) (A) (A) (A)
                 (A) (A) (A) (A) (A) (A) (A) (A) (A) (A) (A) (A)
                 (A) (A) (A) (A) (A) (A) (A) (A) (A) (A) (A) (A)
                 (A) (A) (A) (A) (A) (A) (A) (A) (A) (A) (A) (A)
                 (A) (A)
       Virtual   (A) (A) (A) (A) (A) (A) (A) (A) (A) (A) (A) (A)
                 (A) (A) (A) (A) (A) (A) (A) (A) (A) (A) (A) (A)
                 (A) (A) (A) (A) (A) (A) (A) (A) (A) (A) (A) (A)
                 (A) (A) (A) (A) (A) (A) (A) (A) (A) (A) (A) (A)
                 (A) (A) (A) (A) (A) (A) (A) (A) (A) (A) (A) (A)
                 (A) (A) (A) (A) (A) (A) (A) (A) (A) (A) (A) (A)
                 (A) (A) (A) (A) (A) (A) (A) (A) (A) (A) (A) (A)
                 (A) (A) (A) (A) (A) (A) (A) (A) (A) (A) (A) (A)
                 (A) (A) (A) (A) (A) (A) (A) (A) (A) (A) (A) (A)
                 (A) (A) (A) (A) (A) (A) (A) (A) (A) (A) (A) (A)
                 (A) (A) (A) (A) (A) (A) (A) (A) (A) (A) (A) (A)
                 (A) (A) (A) (A) (A) (A) (A) (A) (A) (A) (A) (A)
                 (A) (A) (A) (A) (A) (A) (A) (A) (A) (A) (A) (A)
                 (A) (A) (A) (A) (A) (A) (A) (A) (A) (A) (A) (A)
                 (A) (A) (A) (A) (A) (A) (A) (A) (A) (A) (A) (A)
                 (A) (A) (A) (A) (A) (A) (A) (A) (A) (A) (A) (A)
                 (A) (A) (A) (A) (A) (A) (A) (A) (A) (A) (A) (A)
                 (A) (A) (A) (A) (A) (A) (A) (A) (A) (A) (A) (A)
                 (A) (A) (A) (A) (A) (A) (A) (A) (A) (A) (A) (A)
                 (A) (A) (A) (A) (A) (A) (A) (A) (A) (A) (A) (A)
                 (A) (A) (A) (A) (A) (A) (A) (A) (A) (A) (A) (A)
                 (A) (A) (A) (A) (A) (A) (A) (A) (A) (A) (A) (A)
                 (A) (A) (A) (A) (A) (A) (A) (A) (A) (A) (A) (A)
                 (A) (A) (A) (A) (A) (A) (A) (A) (A) (A) (A) (A)
                 (A) (A) (A) (A) (A) (A) (A) (A) (A) (A) (A) (A)
                 (A) (A) (A) (A) (A) (A) (A) (A) (A) (A) (A) (A)
                 (A) (A) (A) (A) (A) (A) (A) (A) (A) (A) (A) (A)
                 (A) (A) (A) (A) (A) (A) (A) (A) (A) (A) (A) (A)
                 (A) (A) (A) (A) (A) (A) (A) (A) (A) (A) (A) (A)
                 (A) (A) (A) (A) (A) (A) (A) (A) (A) (A) (A) (A)
                 (A) (A) (A) (A) (A) (A) (A) (A) (A) (A) (A) (A)
                 (A) (A) (A) (A) (A) (A) (A) (A) (A) (A) (A) (A)
                 (A) (A) (A) (A) (A) (A) (A) (A) (A) (A) (A) (A)
                 (A) (A) (A) (A) (A) (A) (A) (A) (A) (A) (A) (A)
                 (A) (A) (A) (A) (A) (A) (A) (A) (A) (A) (A) (A)
                 (A) (A) (A) (A) (A) (A) (A) (A) (A) (A) (A) (A)
                 (A) (A) (A) (A) (A) (A) (A) (A) (A) (A) (A) (A)
                 (A) (A) (A) (A) (A) (A) (A) (A) (A) (A) (A) (A)
                 (A) (A) (A) (A) (A) (A) (A) (A) (A) (A) (A) (A)
                 (A) (A) (A) (A) (A) (A) (A) (A) (A) (A) (A) (A)
                 (A) (A) (A) (A) (A) (A) (A) (A) (A) (A) (A) (A)
                 (A) (A) (A) (A) (A) (A) (A) (A) (A) (A) (A) (A)
                 (A) (A) (A) (A) (A) (A) (A) (A) (A) (A) (A) (A)
                 (A) (A) (A) (A) (A) (A) (A) (A) (A) (A) (A) (A)
                 (A) (A) (A) (A) (A) (A) (A) (A) (A) (A) (A) (A)
                 (A) (A) (A) (A) (A) (A) (A) (A) (A) (A) (A) (A)
                 (A) (A) (A) (A) (A) (A) (A) (A) (A) (A) (A) (A)
                 (A) (A) (A) (A) (A) (A) (A) (A) (A) (A) (A) (A)
                 (A) (A)
 The electronic state is 2-A.
 Alpha  occ. eigenvalues --  -19.63769 -19.62892 -14.84620 -10.64189 -10.60685
 Alpha  occ. eigenvalues --  -10.60653 -10.55735 -10.55674 -10.54600 -10.54589
 Alpha  occ. eigenvalues --  -10.54350 -10.54213 -10.53496 -10.52891 -10.52880
 Alpha  occ. eigenvalues --  -10.52575  -1.20479  -1.15842  -0.98633  -0.94158
 Alpha  occ. eigenvalues --   -0.86788  -0.85751  -0.85646  -0.85181  -0.82331
 Alpha  occ. eigenvalues --   -0.76280  -0.74617  -0.71374  -0.70496  -0.66926
 Alpha  occ. eigenvalues --   -0.64746  -0.60095  -0.57882  -0.57075  -0.56014
 Alpha  occ. eigenvalues --   -0.55140  -0.53920  -0.52227  -0.51991  -0.51585
 Alpha  occ. eigenvalues --   -0.50668  -0.49559  -0.48523  -0.48280  -0.46950
 Alpha  occ. eigenvalues --   -0.45863  -0.45530  -0.44500  -0.44045  -0.43664
 Alpha  occ. eigenvalues --   -0.43202  -0.43053  -0.42568  -0.42498  -0.41301
 Alpha  occ. eigenvalues --   -0.40496  -0.39296  -0.38798  -0.38681  -0.38404
 Alpha  occ. eigenvalues --   -0.34597  -0.32666  -0.27586
 Alpha virt. eigenvalues --    0.00405   0.05754   0.06821   0.07028   0.08318
 Alpha virt. eigenvalues --    0.08632   0.09675   0.10487   0.11089   0.11869
 Alpha virt. eigenvalues --    0.12041   0.12759   0.12856   0.13589   0.13854
 Alpha virt. eigenvalues --    0.14303   0.14589   0.15041   0.16083   0.16253
 Alpha virt. eigenvalues --    0.17190   0.17505   0.17991   0.18037   0.19132
 Alpha virt. eigenvalues --    0.19261   0.19929   0.20433   0.20644   0.21379
 Alpha virt. eigenvalues --    0.21943   0.22048   0.23021   0.23333   0.23998
 Alpha virt. eigenvalues --    0.24336   0.25467   0.25558   0.26011   0.26325
 Alpha virt. eigenvalues --    0.27011   0.27380   0.28167   0.28734   0.29053
 Alpha virt. eigenvalues --    0.29593   0.31149   0.31417   0.32583   0.32953
 Alpha virt. eigenvalues --    0.33644   0.34549   0.35977   0.36969   0.37888
 Alpha virt. eigenvalues --    0.38280   0.38704   0.39146   0.39420   0.40700
 Alpha virt. eigenvalues --    0.41110   0.41601   0.42142   0.42974   0.43374
 Alpha virt. eigenvalues --    0.43544   0.43936   0.44232   0.44633   0.45053
 Alpha virt. eigenvalues --    0.45113   0.45672   0.46182   0.46854   0.47007
 Alpha virt. eigenvalues --    0.47374   0.47694   0.47812   0.48293   0.48821
 Alpha virt. eigenvalues --    0.49103   0.49471   0.49654   0.50247   0.51135
 Alpha virt. eigenvalues --    0.51319   0.51816   0.52203   0.52575   0.53131
 Alpha virt. eigenvalues --    0.53333   0.54576   0.54613   0.54887   0.55618
 Alpha virt. eigenvalues --    0.56321   0.56498   0.57184   0.58146   0.58279
 Alpha virt. eigenvalues --    0.58887   0.59853   0.60295   0.61006   0.62279
 Alpha virt. eigenvalues --    0.63050   0.63810   0.65022   0.66003   0.66918
 Alpha virt. eigenvalues --    0.67550   0.68503   0.69939   0.70323   0.70961
 Alpha virt. eigenvalues --    0.71347   0.72339   0.73554   0.73735   0.75235
 Alpha virt. eigenvalues --    0.77816   0.78237   0.78388   0.79461   0.80969
 Alpha virt. eigenvalues --    0.82537   0.82870   0.84136   0.85041   0.87255
 Alpha virt. eigenvalues --    0.88017   0.88706   0.89773   0.90891   0.91553
 Alpha virt. eigenvalues --    0.92814   0.93034   0.93524   0.93756   0.94614
 Alpha virt. eigenvalues --    0.95519   0.96448   0.97359   0.99005   1.00019
 Alpha virt. eigenvalues --    1.01095   1.01658   1.03174   1.03518   1.03947
 Alpha virt. eigenvalues --    1.05508   1.05766   1.06625   1.07979   1.08804
 Alpha virt. eigenvalues --    1.09003   1.10090   1.10894   1.11739   1.13658
 Alpha virt. eigenvalues --    1.14203   1.14291   1.15872   1.17193   1.18200
 Alpha virt. eigenvalues --    1.18679   1.20172   1.21083   1.21816   1.22293
 Alpha virt. eigenvalues --    1.23043   1.25042   1.25892   1.27129   1.27575
 Alpha virt. eigenvalues --    1.28109   1.28384   1.29927   1.31274   1.31593
 Alpha virt. eigenvalues --    1.32582   1.33773   1.35180   1.36491   1.37829
 Alpha virt. eigenvalues --    1.39381   1.39995   1.41091   1.43315   1.44010
 Alpha virt. eigenvalues --    1.45393   1.46133   1.47926   1.48616   1.52484
 Alpha virt. eigenvalues --    1.53352   1.54237   1.54991   1.56084   1.56389
 Alpha virt. eigenvalues --    1.58060   1.58373   1.58975   1.59391   1.60211
 Alpha virt. eigenvalues --    1.60432   1.61417   1.62181   1.62650   1.62992
 Alpha virt. eigenvalues --    1.63945   1.64384   1.65123   1.65477   1.66061
 Alpha virt. eigenvalues --    1.66327   1.67458   1.67807   1.68529   1.69315
 Alpha virt. eigenvalues --    1.70052   1.70358   1.70865   1.72155   1.72534
[...]
 0008320,-0.00000723,-0.00001786,0.00004272,0.00008439,0.00008988,-0.00
 001246,0.00005560,-0.00002453,0.00000331,-0.00000599,0.00000170,-0.000
 00598,-0.00001436,-0.00002322,-0.00000555,0.00001301,0.00000298,-0.000
 01218,0.00000150,-0.00000255,0.00000515,-0.00000064,0.00000355,0.00001
 027,0.00001149,-0.00000885,-0.00003663,-0.00004189,-0.00006177,0.00002
 691,0.00001236,0.00000126,-0.00007417,-0.00008974,-0.00005631,-0.00797
 484,-0.01871735,-0.01854124,0.00351729,0.00732588,0.00688490,0.0582413
 5,0.19335270,-0.00006231,-0.00002519,0.00003700,0.00000404,0.00001019,
 0.00010390,0.00007821,-0.00003773,-0.00004893,0.00076665,0.00063214,0.
 00036694,-0.00000048,0.00001705,0.00000795,-0.00002199,-0.00001761,0.0
 0001575,0.00118779,0.00234557,0.00119927,0.00034170,0.00010281,0.00007
 798,-0.00000166,-0.00000695,0.00000417,-0.00000456,-0.00000036,-0.0000
 0247,-0.00000602,-0.00000586,-0.00001427,-0.00000245,0.00000597,-0.000
 00295,-0.00035316,0.00007951,0.00004284,-0.00037418,0.00021716,0.00040
 626,-0.00005824,0.00015379,-0.00004401,-0.00012321,-0.00010015,0.00006
 569,0.00001885,-0.00000430,0.00001395,-0.00000006,-0.00000223,-0.00000
 055,-0.00000109,-0.00004531,0.00004561,-0.05027430,-0.12589261,-0.1639
 2287,-0.00009576,0.00011798,-0.00002585,0.00004743,-0.00055709,0.00012
 877,0.00010829,0.00020152,-0.00013357,-0.00001517,0.00029830,-0.000023
 74,-0.00000497,0.00000302,-0.00000381,-0.00000596,-0.00000370,-0.00000
 932,-0.00001248,0.00000908,0.00001044,-0.00000724,-0.00000132,0.000001
 60,0.00000424,0.00000285,0.00000534,0.00000419,0.00000561,-0.00000115,
 0.00001658,0.00001966,0.00002187,0.00000240,-0.00000861,-0.00000037,-0
 .00000488,-0.00000645,-0.00000822,0.00335432,0.00647443,0.00578539,-0.
 00814010,-0.02126896,-0.01903591,0.05390439,0.13747134,0.17447182,-0.0
 0012925,-0.00007697,-0.00005423,0.00010669,-0.00008649,-0.00040248,0.0
 0055068,0.00519127,0.00319550,0.00025644,-0.00038698,-0.00006329,0.000
 21861,0.00030861,0.00037659,0.00006243,-0.00063452,0.00244721,0.000012
 93,-0.00009886,0.00000255,-0.00006017,-0.00002260,0.00012026,0.0000063
 2,0.00003818,-0.00017891,-0.00011072,0.00024798,-0.00009570,-0.0000519
 1,0.00007220,-0.00003579,0.00029100,-0.00029406,-0.00025928,0.00000646
 ,0.00002428,0.00004076,0.00000146,0.00002927,0.00001787,-0.00000439,0.
 00000945,-0.00001056,0.00003095,-0.00002041,0.00000970,0.00026371,0.00
 043379,0.00009662,-0.00045627,-0.00045543,0.00066287,0.00003130,-0.000
 03139,-0.00016261,0.00001119,0.00002575,0.00001302,-0.05533226,-0.0280
 4155,-0.02961276,-0.00010110,-0.02541453,-0.02256924,0.00011014,0.0020
 0459,0.00239806,-0.00523222,-0.00169744,0.00459110,-0.00003189,-0.0000
 2242,0.00000382,0.00001435,-0.00001324,0.00010596,0.00000048,0.0000008
 2,0.00016898,-0.00002739,0.00007072,-0.00009061,-0.00025777,-0.0016733
 7,0.00049814,0.00010843,0.00009558,-0.00017467,-0.00000995,0.00003379,
 0.00008645,0.00001161,-0.00001538,0.00005584,0.00001413,-0.00000636,0.
 00001825,-0.00000545,-0.00000021,-0.00000060,-0.00000658,-0.00001717,0
 .00000998,0.00000440,0.00000004,0.00001722,0.05695584,-0.00034791,-0.0
 0001447,-0.00011769,-0.00007562,0.00050311,-0.00034031,0.00287525,0.00
 837232,0.00668872,0.00033436,0.00021567,-0.00030844,-0.00052800,-0.000
 02703,-0.00076383,-0.00042788,-0.00016269,0.00103480,-0.00008162,-0.00
 008304,0.00009763,-0.00003738,0.00001983,0.00000881,0.00030782,-0.0000
 0862,-0.00006169,0.00003250,-0.00007350,-0.00019432,0.00013567,0.00003
 148,0.00021609,-0.00021785,0.00014381,0.00018025,0.00000519,0.00001426
 ,-0.00001326,0.00001933,0.00002705,0.00004780,-0.00003774,0.00000998,-
 0.00001075,0.00000219,-0.00003658,0.00001340,-0.00017849,0.00044745,0.
 00036441,-0.00055480,-0.00074058,0.00107312,-0.00001944,0.00004037,0.0
 0009261,0.00000163,0.00001457,-0.00002260,-0.02601322,-0.20473176,-0.1
 3123307,-0.00192912,-0.01225037,-0.00611137,0.00112593,-0.00032566,0.0
 0034705,-0.00329301,0.00084376,0.00105733,-0.00001044,0.00000621,-0.00
 003198,-0.00000761,0.00000520,-0.00011197,-0.00002211,-0.00001810,0.00
 012371,0.00002115,0.00011588,-0.00011617,-0.00191968,-0.00226314,0.001
 16632,0.00007602,-0.00005904,0.00007709,-0.00002322,0.00008549,-0.0001
 2141,-0.00002349,-0.00000696,-0.00002987,-0.00000625,-0.00003078,0.000
 02732,-0.00000518,-0.00000051,0.00000617,-0.00002358,-0.00001557,0.000
 01474,-0.00000427,-0.00000514,0.00001121,0.03487502,0.22399018,0.00017
 073,0.00043336,0.00023109,0.00029919,-0.00068119,0.00143149,-0.0033031
 0,-0.02426294,-0.02201415,-0.00023133,0.00001276,-0.00040880,-0.000902
 73,-0.00132750,0.00087228,0.00021128,0.00344520,-0.00541481,-0.0000233
 1,-0.00008508,0.00006786,-0.00003103,-0.00003876,-0.00004021,-0.000246
 15,-0.00019122,0.00020862,0.00020385,0.00004615,-0.00001297,-0.0000802
 9,0.00032377,0.00016892,0.00019026,-0.00000851,0.00011102,0.00004203,0
 .00007216,-0.00000866,0.00002703,-0.00000916,0.00003091,0.00000620,0.0
 0002467,-0.00001027,0.00000584,0.00000720,0.00001519,0.00045733,-0.001
 77004,-0.00011905,-0.00013088,0.00002192,-0.00030920,-0.00001598,-0.00
 001499,-0.00004083,0.00000161,0.00005083,0.00001429,-0.02625257,-0.126
 79951,-0.14192221,0.00093558,0.00406370,0.00266208,0.00006182,-0.00065
 885,-0.00060033,0.00127157,0.00031196,-0.00161396,0.00008151,0.0000431
 4,-0.00009993,-0.00006384,0.00002280,-0.00000476,0.00000631,0.00009837
 ,-0.00064116,-0.00017398,-0.00005821,0.00045895,0.00032184,0.00084758,
 0.00105020,-0.00007199,-0.00004997,0.00011741,-0.00007529,0.00005876,0
 .00005152,0.00004860,-0.00000332,0.00003759,-0.00001192,0.00004863,-0.
 00005671,-0.00002714,0.00000112,-0.00000306,-0.00001777,-0.00001069,0.
 00000309,0.00001368,0.00000552,0.00000606,0.02487955,0.13949172,0.1601
 1674,0.00066699,-0.00027625,0.00034447,0.00000124,-0.00076092,0.001538
 99,0.00274634,-0.00407779,0.00029734,0.00014767,-0.00045105,0.00069905
 ,0.00053808,-0.00017070,-0.00001358,0.00046946,-0.00007392,0.00069299,
 0.00006231,0.00012485,-0.00002293,0.00002169,0.00000723,-0.00010412,0.
 00010383,0.00006657,-0.00005540,-0.00007149,-0.00017467,0.00024791,-0.
 00030358,0.00004475,-0.00028694,0.00018742,-0.00012392,0.00016515,-0.0
 0001363,-0.00001790,0.00002148,-0.00002507,-0.00002581,-0.00007313,0.0
 0007831,-0.00004565,0.00001441,-0.00001774,0.00007568,-0.00002610,0.00
 008632,-0.00021543,-0.00007030,-0.00011685,-0.00008943,-0.00014154,-0.
 00001902,0.00000412,-0.00001566,-0.00004292,-0.00007903,0.00002763,-0.
 15894261,0.12726460,-0.03938354,-0.02239540,0.02830150,-0.00824510,-0.
 00530861,-0.00391618,0.00120827,0.00579765,-0.00079556,0.00030839,0.00
 000179,-0.00002165,0.00006380,-0.00000328,0.00000099,0.00009713,0.0000
 0759,0.00002322,-0.00002628,-0.00002173,-0.00004257,0.00004181,-0.0000
 4950,0.00003609,0.00008924,-0.00000755,-0.00001692,0.00003201,-0.00003
 032,-0.00001394,-0.00001310,0.00001238,0.00001899,-0.00000252,0.000010
 48,0.00003517,-0.00001495,0.00001105,0.00000619,-0.00000498,0.00006223
 ,0.00005476,-0.00003564,-0.00000020,0.00000638,-0.00005130,0.00410865,
 -0.00477078,0.00223261,0.17317545,0.00046202,-0.00028437,0.00077340,-0
 .00145061,0.00044380,0.00077393,0.00614835,-0.00682094,0.00161879,-0.0
 0027861,-0.00032378,0.00009852,0.00091191,-0.00014407,-0.00021703,0.00
 016551,0.00023646,-0.00226002,0.00003224,-0.00001955,-0.00001430,0.000
 01770,0.00002489,0.00000318,-0.00021888,0.00018422,-0.00007674,-0.0006
 8251,-0.00005178,0.00015439,-0.00009908,0.00007074,0.00019609,-0.00023
 992,0.00059564,-0.00014258,0.00000927,0.00001555,0.00000214,-0.0000052
 8,-0.00001470,-0.00000467,0.00003818,-0.00002355,-0.00000627,-0.000002
 15,0.00000265,-0.00000158,-0.00031215,0.00009088,0.00012582,-0.0003361
 0,-0.00026166,-0.00032588,0.00000557,-0.00000130,-0.00004606,-0.000013
 21,0.00001061,0.00002275,0.13179788,-0.19792176,0.04435049,-0.00831562
 ,0.00827119,-0.00303271,-0.00184526,-0.00029162,0.00037830,0.00090290,
 0.00123968,-0.00050321,0.00002130,-0.00001462,0.00000380,-0.00001456,-
 0.00002039,-0.00015688,-0.00000932,-0.00001147,-0.00000738,-0.00005996
 ,-0.00006958,0.00015751,0.00005330,-0.00001225,0.00030521,-0.00000481,
 0.00010420,0.00003039,-0.00002906,0.00003264,0.00002462,0.00002299,-0.
 00001221,0.00001429,0.00000790,0.00003392,0.00000582,-0.00000424,-0.00
 000323,-0.00000050,0.00000709,0.00000579,-0.00000693,0.00001581,0.0000
 0854,-0.00000536,0.01488330,-0.01504994,0.00613173,-0.14103854,0.20924
 899,-0.00178312,0.00182450,-0.00188819,0.00333943,0.00087161,-0.004522
 28,-0.02060411,0.02097890,-0.00701841,0.00083338,0.00004048,-0.0002710
 4,-0.00112900,-0.00044416,0.00062609,-0.00089247,0.00113169,0.00040677
 ,-0.00009662,0.00007364,0.00009486,-0.00009773,-0.00009208,0.00006277,
 0.00007678,-0.00022466,0.00003996,0.00057463,0.00000541,0.00019952,-0.
 00025581,-0.00026235,0.00009399,0.00065452,-0.00032525,-0.00081123,-0.
 00000858,-0.00004239,0.00002100,0.00001721,0.00004612,0.00002357,-0.00
 005448,0.00005457,0.00001211,0.00004785,-0.00001537,0.00001599,0.00012
 107,-0.00012396,0.00015272,-0.00003919,-0.00018053,-0.00024343,0.00000
 355,-0.00000157,-0.00005208,0.00001115,-0.00005399,-0.00004784,-0.0387
 8302,0.04217767,-0.06009196,0.00250627,-0.00361473,0.00005117,0.001351
 13,0.00032050,0.00093471,-0.00031027,-0.00053116,-0.00097658,-0.000056
 07,-0.00000633,0.00009904,0.00006390,-0.00000269,0.00019391,0.00000276
 ,-0.00001285,0.00002493,-0.00001838,0.00000343,0.00012369,-0.00002336,
 -0.00002882,0.00015265,-0.00001187,-0.00012034,-0.00004097,-0.00003194
 ,0.00003218,0.00003732,-0.00000600,0.00000223,0.00003311,-0.00000964,-
 0.00004454,-0.00002970,0.00001325,0.00000068,0.00000593,-0.00002230,-0
 .00000943,0.00001559,-0.00003425,-0.00000837,0.00000879,0.01385265,-0.
 01334557,0.00504633,0.04068041,-0.04856527,0.06689658,0.00006967,-0.00
 001280,-0.00003779,0.00025325,0.00019755,0.00004375,0.00024961,0.00039
 927,-0.00009495,-0.00045091,0.00166449,0.00196772,-0.00000262,0.000038
 72,-0.00009659,0.00010024,0.00003624,0.00001557,0.00013662,-0.00003132
 ,-0.00046817,0.00036613,-0.00031842,-0.00094329,0.00001968,-0.00000642
 ,0.00000114,0.00001041,-0.00001393,0.00000407,0.00000127,-0.00003603,-
 0.00004093,0.00000415,-0.00000979,-0.00001507,-0.00005200,-0.00010708,
 0.00001409,0.00009821,-0.00013721,-0.00010296,-0.00027697,-0.00020524,
 -0.00004303,-0.00018834,0.00006542,0.00011939,-0.00002646,-0.00001825,
 -0.00001765,0.00006280,0.00001850,0.00013434,-0.00008421,0.00010012,0.
 00023140,0.00015038,-0.00000834,0.00007400,-0.00110111,-0.00152910,-0.
 00194284,0.00670789,0.01487730,0.01790293,-0.05741432,-0.03056980,-0.0
 2465832,-0.00157859,0.00292050,-0.00373746,0.00000364,-0.00000167,0.00
 001677,0.00001055,-0.00000628,0.00001361,0.00000493,-0.00000578,-0.000
 00344,0.00002504,-0.00000954,-0.00005069,-0.00001578,0.00000628,-0.000
 10186,0.00000050,-0.00002547,0.00001654,0.00060643,-0.00037561,0.00010
 105,-0.00003789,0.00005910,-0.00011829,-0.00000186,-0.00009486,0.00012
 713,-0.00000293,0.00006141,-0.00015538,0.00037483,0.00009440,-0.000028
 24,0.00005847,0.00003612,-0.00011663,-0.00183048,0.00070130,0.00024264
 ,0.00035946,-0.00015952,-0.00013378,0.05592092,0.00031281,-0.00019829,
 -0.00013967,0.00016706,0.00024171,-0.00043316,-0.00038245,0.00020782,-
 0.00032340,0.00140946,0.01018611,0.00788491,0.00004967,-0.00002176,0.0
 0008363,-0.00000373,-0.00013184,0.00014477,-0.00014532,-0.00058638,0.0
 0234512,0.00042126,-0.00021755,-0.00013911,-0.00003715,-0.00003019,0.0
 0001425,0.00003655,-0.00000508,-0.00001267,-0.00000192,0.00002435,-0.0
 0000119,0.00003518,-0.00002794,-0.00001609,-0.00005843,-0.00000458,0.0
 0010261,0.00018289,0.00038721,0.00052388,0.00003231,0.00010736,-0.0002
 3644,-0.00022520,0.00012125,-0.00013943,0.00001003,0.00004641,0.000005
 07,0.00001633,0.00002417,-0.00001400,0.00009664,-0.00093130,0.00149136
 ,-0.00006009,0.00000603,0.00001683,-0.00074735,0.00099149,0.00136565,-
 0.00685169,-0.02110972,-0.01624669,-0.03238061,-0.19595094,-0.13391895
 ,0.00440906,-0.00223303,0.00355796,-0.00000634,0.00000145,-0.00000568,
 0.00002299,-0.00000228,0.00001402,0.00000109,-0.00000400,0.00002159,0.
 00000664,-0.00002017,0.00000221,0.00004709,0.00004425,-0.00003881,-0.0
 0001876,-0.00002427,0.00002985,-0.00018520,-0.00308913,0.00119686,0.00
 006050,0.00013181,-0.00018678,-0.00007806,0.00004696,0.00000705,0.0000
 3474,0.00000763,-0.00001222,0.00011646,0.00001074,-0.00003894,0.000021
 85,-0.00001870,-0.00002573,0.00067672,0.00090776,0.00023294,-0.0002162
 0,0.00021300,0.00050687,0.03375572,0.21825878,0.00008206,0.00048270,0.
 00022284,-0.00061433,-0.00040032,0.00117951,0.00020606,-0.00001607,-0.
 00039745,-0.00619311,-0.02279951,-0.02349178,0.00000810,-0.00004589,-0
 .00004400,0.00000005,-0.00007383,0.00007995,0.00178242,0.00356780,-0.0
 0488346,0.00017822,-0.00167224,0.00065332,-0.00000422,0.00000293,0.000
 00752,0.00000732,0.00002729,-0.00000705,-0.00000913,0.00006444,-0.0000
 1530,0.00003690,0.00000526,0.00000405,0.00009757,0.00019207,0.00029717
 ,-0.00088353,-0.00107931,-0.00133413,-0.00027040,0.00011369,0.00000566
 ,0.00005278,-0.00031717,0.00028019,-0.00003526,0.00006895,-0.00000771,
 0.00001470,-0.00003038,-0.00000374,-0.00000482,0.00003501,-0.00025145,
 0.00051067,0.00003489,0.00001218,-0.00039928,-0.00073724,-0.00076299,0
 .00136765,0.00532265,0.00436366,-0.02592985,-0.12804077,-0.14604789,-0
 .00094066,0.00107134,-0.00207262,0.00003870,-0.00000782,-0.00000299,-0
 .00003564,-0.00002738,0.00005124,0.00000580,0.00000085,0.00002253,-0.0
 0003884,0.00002040,0.00002420,0.00006972,0.00001653,0.00003968,0.00003
 456,0.00003465,-0.00005205,0.00025116,0.00098111,0.00094412,0.00010596
 ,-0.00012374,0.00040606,0.00006167,-0.00015551,0.00018731,-0.00011662,
 0.00002542,-0.00003525,-0.00009825,-0.00003237,0.00019348,-0.00012318,
 -0.00000407,0.00006542,-0.00030314,0.00037970,0.00046922,0.00014458,0.
 00012525,0.00015082,0.03090409,0.13830241,0.16628530,0.00017781,-0.000
 12890,0.00009464,0.00123295,0.00022940,-0.00064890,0.00039861,0.000111
 66,-0.00048596,-0.00142923,0.00031917,0.00170523,0.00000076,0.00001088
 ,0.00009715,-0.00002752,-0.00012974,0.00004618,-0.00048193,-0.00062474
 ,0.00003904,0.00005907,0.00010526,0.00008460,-0.00003963,-0.00005161,0
 .00001428,0.00005679,-0.00000173,-0.00001526,-0.00000282,0.00001896,-0
 .00001485,0.00003743,-0.00001125,-0.00002007,-0.00010780,-0.00000149,0
 .00018568,-0.00008744,0.00014955,-0.00004182,0.00030106,-0.00001600,-0
 .00010560,0.00010875,-0.00005839,0.00000991,0.00000581,0.00005357,0.00
 000331,-0.00002295,0.00000575,-0.00000938,0.00005294,0.00001412,-0.000
 06068,-0.00019693,-0.00008872,-0.00112562,-0.00176877,0.00453298,-0.00
 116864,-0.02427264,-0.01135721,0.00383589,-0.28009333,-0.09243079,0.03
 836021,0.00484763,-0.00110211,0.00007127,0.00000592,-0.00000620,-0.000
 00463,0.00000091,-0.00001723,0.00001841,-0.00000396,0.00000842,0.00002
 933,-0.00000974,-0.00001814,0.00000797,-0.00000258,0.00002590,0.000019
 42,-0.00000175,-0.00001102,0.00001489,-0.00006933,0.00000129,0.0000136
 2,0.00001011,0.00000486,0.00001821,0.00002694,0.00007714,-0.00001176,-
 0.00005161,0.00009311,-0.00011603,-0.00057199,-0.00044130,-0.00211690,
 0.00001346,0.00002262,-0.00011812,0.00046958,0.00004530,-0.00005176,-0
 .00128689,-0.00038386,0.00025207,-0.00253059,-0.00052458,0.00003953,0.
 30525292,-0.00085678,0.00002650,0.00075037,0.00118247,-0.00054839,0.00
 126565,-0.00014219,-0.00049383,0.00042371,-0.00927993,-0.00396052,0.00
 061488,-0.00000546,0.00002905,-0.00005908,-0.00002320,0.00004599,-0.00
 005876,-0.00022107,0.00037888,-0.00067850,-0.00096420,0.00033193,-0.00
 026258,0.00002660,0.00002887,-0.00001608,-0.00008171,0.00000258,0.0000
 0134,0.00000245,0.00000724,0.00002047,-0.00003718,0.00003510,0.0000232
 3,0.00015584,-0.00004836,0.00012104,-0.00004898,-0.00012018,-0.0000511
 5,0.00044130,-0.00036574,0.00019566,0.00021874,0.00007529,-0.00010373,
 0.00001031,-0.00000843,0.00000960,0.00000666,-0.00000657,-0.00001795,0
 .00005063,-0.00038566,-0.00033783,-0.00009623,-0.00013618,-0.00053165,
 0.00260635,-0.00363248,0.00121420,0.02529566,0.01016412,-0.00433048,-0
 .09698727,-0.08610550,0.01482054,-0.00261147,0.00215291,-0.00067616,0.
 00000938,-0.00000566,-0.00000678,-0.00001456,-0.00000891,-0.00002487,-
 0.00000589,0.00001279,-0.00001108,-0.00002110,0.00001099,0.00000382,0.
 00003596,-0.00000770,0.00000575,0.00001234,0.00004555,-0.00000652,0.00
 003931,0.00003298,0.00036143,0.00001115,-0.00010924,0.00016134,0.00006
 861,0.00001113,0.00009521,0.00000646,-0.00003999,0.00012613,-0.0004327
 9,0.00048516,-0.00086657,0.00009298,-0.00000342,-0.00016368,-0.0000119
 9,0.00010914,0.00017397,0.00134371,0.00051942,-0.00001406,-0.02134998,
 -0.00735918,0.00468825,0.10157509,0.08884033,0.00260768,0.00078561,-0.
 00186582,-0.00221463,0.00251409,-0.00470262,-0.00069793,0.00047077,-0.
 00036492,0.02858380,0.00956837,-0.00373594,0.00002744,-0.00013451,0.00
 008496,0.00009089,0.00004416,0.00012667,0.00077468,-0.00003349,0.00095
 632,0.00062406,-0.00093465,0.00048947,-0.00005418,0.00000575,0.0000129
 1,0.00008342,0.00001598,0.00001596,-0.00001278,-0.00003442,0.00001564,
 0.00002722,-0.00008934,-0.00003867,0.00002592,-0.00028950,-0.00004550,
 0.00002059,0.00004579,0.00040648,-0.00041665,0.00030018,0.00020364,-0.
 00015122,-0.00009549,0.00002067,0.00001277,-0.00003660,0.00000699,-0.0
 0000551,-0.00000169,-0.00004688,-0.00012107,-0.00022823,-0.00025389,-0
 .00010027,0.00025632,-0.00108978,-0.00125950,0.00121918,0.00073899,-0.
 00594043,-0.00293766,0.00008864,0.03746390,0.01376054,-0.05286263,0.00
 046344,-0.00079142,-0.00094925,-0.00004384,0.00001554,0.00000715,0.000
 03548,0.00004668,0.00000205,0.00001091,-0.00002210,-0.00000233,0.00000
 745,0.00000020,0.00002937,0.00003218,0.00000872,0.00003852,-0.00000925
 ,-0.00004352,-0.00003152,0.00002750,-0.00005299,0.00018034,0.00000728,
 -0.00001034,0.00012447,-0.00003258,-0.00012834,-0.00000926,-0.00003758
 ,-0.00005099,0.00016385,-0.00183228,-0.00074963,-0.00117776,-0.0001135
 7,-0.00010422,0.00038521,0.00034494,0.00041429,0.00015021,-0.00036057,
 0.00007692,0.00046978,-0.01902286,-0.00592088,0.00346443,-0.03884485,-
 0.01685906,0.05899402\\-0.00000115,-0.00000128,0.00000679,-0.00000413,
 0.00000190,-0.00000953,-0.00000765,0.00000167,0.00000853,0.00000535,-0
 .00000598,-0.00000172,0.00000055,0.00000178,-0.00000049,0.00000026,-0.
 00000039,-0.00000606,-0.00000218,0.00000125,0.00000120,0.00000235,-0.0
 0000161,0.00000178,0.00000118,0.00000071,0.00000060,0.00000110,0.00000
 224,0.00000090,0.00000156,0.00000093,0.00000176,0.00000141,0.00000166,
 -0.00000001,0.00000004,-0.00000008,-0.00000013,0.00000256,-0.00000131,
 -0.00000080,-0.00000002,-0.00000012,-0.00000081,-0.00000163,-0.0000002
 2,-0.00000184,-0.00000431,0.00000541,0.00000682,-0.00000219,-0.0000019
 0,-0.00000134,0.00000006,-0.00000418,-0.00000040,0.00000251,-0.0000009
 1,0.00000056,0.00000303,0.00000225,0.00000480,-0.00000272,-0.00000643,
 -0.00000577,-0.00000050,0.00000434,0.00001030,0.00000239,0.00000576,-0
 .00000155,0.00000172,-0.00000153,-0.00000040,0.00000038,-0.00000179,-0
 .00000058,0.00000205,-0.00000159,-0.00000097,-0.00000153,0.00000160,-0
 .00000016,0.00000270,0.00000350,0.00000014,0.00000236,-0.00000004,-0.0
 0000078,-0.00000052,0.00000013,0.00000028,-0.00000127,-0.00000047,-0.0
 0000079,-0.00000254,0.00000084,-0.00000178,-0.00000047,-0.00000182,-0.
 00000059,0.00000055,-0.00000197,-0.00000021,0.00000026,-0.00000076,-0.
 00000009,-0.00000276,-0.00000335,-0.00000181,0.00000020,0.00000075,-0.
 00000112,0.00000080,0.00000021,-0.00000287,0.00000021,0.00000081,-0.00
 000188\\\@
 The archive entry for this job was punched.


 THE ONLY EXISTING THINGS ARE ATOMS AND EMPTY SPACE;
 ALL ELSE IS MERE OPINION. -- DEMOCRITUS OF ABDERA D. 370 B.C.
 EXPERIMENTS ARE THE ONLY MEANS OF KNOWLEDGE AT OUR DISPOSAL
 THE REST IS POETRY, IMAGINATION. -- MAX PLANCK
 Job cpu time:       2 days 23 hours 29 minutes 28.5 seconds.
 Elapsed time:       0 days  3 hours 34 minutes 29.7 seconds.
 File lengths (MBytes):  RWF=   2492 Int=      0 D2E=      0 Chk=     47 Scr=      1
 Normal termination of Gaussian 16 at Thu Jan  9 21:51:25 2025.
