 Entering Gaussian System, Link 0=g16
 Input=gjfs/data_set_3-catalyst-Mix_9_opt.gjf
 Output=gjfs/data_set_3-catalyst-Mix_9_opt.log
 Initial command:
 /usr/local/intel/g16/l1.exe "/scr/Gau-358017.inp" -scrdir="/scr/"
 Entering Link 1 = /usr/local/intel/g16/l1.exe PID=    358019.
  
 Copyright (c) 1988-2019, Gaussian, Inc.  All Rights Reserved.
  
 This is part of the Gaussian(R) 16 program.  It is based on
 the Gaussian(R) 09 system (copyright 2009, Gaussian, Inc.),
 the Gaussian(R) 03 system (copyright 2003, Gaussian, Inc.),
 the Gaussian(R) 98 system (copyright 1998, Gaussian, Inc.),
 the Gaussian(R) 94 system (copyright 1995, Gaussian, Inc.),
 the Gaussian 92(TM) system (copyright 1992, Gaussian, Inc.),
 the Gaussian 90(TM) system (copyright 1990, Gaussian, Inc.),
 the Gaussian 88(TM) system (copyright 1988, Gaussian, Inc.),
 the Gaussian 86(TM) system (copyright 1986, Carnegie Mellon
 University), and the Gaussian 82(TM) system (copyright 1983,
 Carnegie Mellon University). Gaussian is a federally registered
 trademark of Gaussian, Inc.
  
 This software contains proprietary and confidential information,
 including trade secrets, belonging to Gaussian, Inc.
  
 This software is provided under written license and may be
 used, copied, transmitted, or stored only in accord with that
 written license.
  
 The following legend is applicable only to US Government
 contracts under FAR:
  
                    RESTRICTED RIGHTS LEGEND
  
 Use, reproduction and disclosure by the US Government is
 subject to restrictions as set forth in subparagraphs (a)
 and (c) of the Commercial Computer Software - Restricted
 Rights clause in FAR 52.227-19.
  
 Gaussian, Inc.
 340 Quinnipiac St., Bldg. 40, Wallingford CT 06492
  
  
 ---------------------------------------------------------------
 Warning -- This program may not be used in any manner that
 competes with the business of Gaussian, Inc. or will provide
 assistance to any competitor of Gaussian, Inc.  The licensee
 of this program is prohibited from giving any competitor of
 Gaussian, Inc. access to this program.  By using this program,
 the user acknowledges that Gaussian, Inc. is engaged in the
 business of creating and licensing software in the field of
 computational chemistry and represents and warrants to the
 licensee that it is not a competitor of Gaussian, Inc. and that
 it will not use this program in any manner prohibited above.
 ---------------------------------------------------------------
  

 Cite this work as:
 Gaussian 16, Revision C.01,
 M. J. Frisch, G. W. Trucks, H. B. Schlegel, G. E. Scuseria, 
 M. A. Robb, J. R. Cheeseman, G. Scalmani, V. Barone, 
 G. A. Petersson, H. Nakatsuji, X. Li, M. Caricato, A. V. Marenich, 
 J. Bloino, B. G. Janesko, R. Gomperts, B. Mennucci, H. P. Hratchian, 
 J. V. Ortiz, A. F. Izmaylov, J. L. Sonnenberg, D. Williams-Young, 
 F. Ding, F. Lipparini, F. Egidi, J. Goings, B. Peng, A. Petrone, 
 T. Henderson, D. Ranasinghe, V. G. Zakrzewski, J. Gao, N. Rega, 
 G. Zheng, W. Liang, M. Hada, M. Ehara, K. Toyota, R. Fukuda, 
 J. Hasegawa, M. Ishida, T. Nakajima, Y. Honda, O. Kitao, H. Nakai, 
 T. Vreven, K. Throssell, J. A. Montgomery, Jr., J. E. Peralta, 
 F. Ogliaro, M. J. Bearpark, J. J. Heyd, E. N. Brothers, K. N. Kudin, 
 V. N. Staroverov, T. A. Keith, R. Kobayashi, J. Normand, 
 K. Raghavachari, A. P. Rendell, J. C. Burant, S. S. Iyengar, 
 J. Tomasi, M. Cossi, J. M. Millam, M. Klene, C. Adamo, R. Cammi, 
 J. W. Ochterski, R. L. Martin, K. Morokuma, O. Farkas, 
 J. B. Foresman, and D. J. Fox, Gaussian, Inc., Wallingford CT, 2019.
 
 ******************************************
 Gaussian 16:  ES64L-G16RevC.01  3-Jul-2019
                10-Jan-2025 
 ******************************************
 %nprocshared=20
 Will use up to   20 processors via shared memory.
 %mem=30GB
 %chk=outputs/data_set_3-catalyst-Mix_9_opt.chk
 ----------------------------------
 #p M062X/DEF2TZVP opt freq pop=NBO
 ----------------------------------
 1/18=20,19=15,26=3,38=1/1,3;
 2/9=110,12=2,17=6,18=5,40=1/2;
 3/5=44,7=101,11=2,25=1,30=1,71=1,74=-55/1,2,3;
 4//1;
 5/5=2,38=5/2;
 6/7=2,8=2,9=2,10=2,28=1,40=1/1,7;
 7//1,2,3,16;
 1/18=20,19=15,26=3/3(2);
 2/9=110/2;
 99//99;
 2/9=110/2;
 3/5=44,7=101,11=2,25=1,30=1,71=1,74=-55/1,2,3;
 4/5=5,16=3,69=1/1;
 5/5=2,38=5/2;
 7//1,2,3,16;
 1/18=20,19=15,26=3/3(-5);
 2/9=110/2;
 6/7=2,8=2,9=2,10=2,19=2,28=1,40=1/1,7;
 99/9=1/99;
 Leave Link    1 at Fri Jan 10 04:37:54 2025, MaxMem=  4026531840 cpu:               1.3 elap:               0.1
 (Enter /usr/local/intel/g16/l101.exe)
 -----------------------------
 data_set_3-catalyst-Mix_9_opt
 -----------------------------
 Symbolic Z-matrix:
 Charge =  0 Multiplicity = 2
 O                     0.00194  -2.33483   0.00135 
 N                     0.00091  -1.01652   0.00038 
 C                     1.3207   -0.31228  -0.00346 
 C                     1.14418   1.09987   0.59515 
 C                    -0.00166   1.89797   0.00002 
 C                    -1.14567   1.09777  -0.59574 
 C                    -1.32008  -0.31451   0.00319 
 C                     1.84838  -0.24408  -1.45541 
 C                     2.30725  -1.10889   0.86918 
 C                    -2.30471  -1.11312  -0.86978 
 C                    -1.84869  -0.24675   1.45482 
 O                    -0.00306   3.13969   0.00059 
 H                     2.06857   1.67226   0.47551 
 H                     0.96239   1.0185    1.67546 
 H                    -0.96294   1.01635  -1.6759 
 H                    -2.07116   1.66853  -0.47693 
 H                     2.86011   0.17511  -1.46787 
 H                     1.21451   0.37825  -2.09592 
 H                     1.88139  -1.25245  -1.87777 
 H                     3.25848  -0.56903   0.92839 
 H                     2.48396  -2.09852   0.44489 
 H                     1.91029  -1.2394    1.88102 
 H                    -1.90701  -1.24301  -1.88142 
 H                    -3.25697  -0.57512  -0.92955 
 H                    -2.4797   -2.10302  -0.44539 
 H                    -2.86108   0.17086   1.46661 
 H                    -1.21614   0.37675   2.09551 
 H                    -1.88033  -1.25505   1.87743 
 
 ITRead=  0  0  0  0  0  0  0  0  0  0  0  0  0  0  0  0  0  0  0  0
 ITRead=  0  0  0  0  0  0  0  0
 MicOpt= -1 -1 -1 -1 -1 -1 -1 -1 -1 -1 -1 -1 -1 -1 -1 -1 -1 -1 -1 -1
 MicOpt= -1 -1 -1 -1 -1 -1 -1 -1
 NAtoms=     28 NQM=       28 NQMF=       0 NMMI=      0 NMMIF=      0
                NMic=       0 NMicF=      0.
                    Isotopes and Nuclear Properties:
 (Nuclear quadrupole moments (NQMom) in fm**2, nuclear magnetic moments (NMagM)
  in nuclear magnetons)

  Atom         1           2           3           4           5           6           7           8           9          10
 IAtWgt=          16          14          12          12          12          12          12          12          12          12
 AtmWgt=  15.9949146  14.0030740  12.0000000  12.0000000  12.0000000  12.0000000  12.0000000  12.0000000  12.0000000  12.0000000
 NucSpn=           0           2           0           0           0           0           0           0           0           0
 AtZEff=  -0.0000000  -0.0000000  -0.0000000  -0.0000000  -0.0000000  -0.0000000  -0.0000000  -0.0000000  -0.0000000  -0.0000000
 NQMom=    0.0000000   2.0440000   0.0000000   0.0000000   0.0000000   0.0000000   0.0000000   0.0000000   0.0000000   0.0000000
 NMagM=    0.0000000   0.4037610   0.0000000   0.0000000   0.0000000   0.0000000   0.0000000   0.0000000   0.0000000   0.0000000
 AtZNuc=   8.0000000   7.0000000   6.0000000   6.0000000   6.0000000   6.0000000   6.0000000   6.0000000   6.0000000   6.0000000

  Atom        11          12          13          14          15          16          17          18          19          20
 IAtWgt=          12          16           1           1           1           1           1           1           1           1
 AtmWgt=  12.0000000  15.9949146   1.0078250   1.0078250   1.0078250   1.0078250   1.0078250   1.0078250   1.0078250   1.0078250
 NucSpn=           0           0           1           1           1           1           1           1           1           1
 AtZEff=  -0.0000000  -0.0000000  -0.0000000  -0.0000000  -0.0000000  -0.0000000  -0.0000000  -0.0000000  -0.0000000  -0.0000000
 NQMom=    0.0000000   0.0000000   0.0000000   0.0000000   0.0000000   0.0000000   0.0000000   0.0000000   0.0000000   0.0000000
 NMagM=    0.0000000   0.0000000   2.7928460   2.7928460   2.7928460   2.7928460   2.7928460   2.7928460   2.7928460   2.7928460
 AtZNuc=   6.0000000   8.0000000   1.0000000   1.0000000   1.0000000   1.0000000   1.0000000   1.0000000   1.0000000   1.0000000

  Atom        21          22          23          24          25          26          27          28
 IAtWgt=           1           1           1           1           1           1           1           1
 AtmWgt=   1.0078250   1.0078250   1.0078250   1.0078250   1.0078250   1.0078250   1.0078250   1.0078250
 NucSpn=           1           1           1           1           1           1           1           1
 AtZEff=  -0.0000000  -0.0000000  -0.0000000  -0.0000000  -0.0000000  -0.0000000  -0.0000000  -0.0000000
 NQMom=    0.0000000   0.0000000   0.0000000   0.0000000   0.0000000   0.0000000   0.0000000   0.0000000
 NMagM=    2.7928460   2.7928460   2.7928460   2.7928460   2.7928460   2.7928460   2.7928460   2.7928460
 AtZNuc=   1.0000000   1.0000000   1.0000000   1.0000000   1.0000000   1.0000000   1.0000000   1.0000000
 Leave Link  101 at Fri Jan 10 04:37:55 2025, MaxMem=  4026531840 cpu:              24.3 elap:               1.2
 (Enter /usr/local/intel/g16/l103.exe)

 GradGradGradGradGradGradGradGradGradGradGradGradGradGradGradGradGradGrad
 Berny optimization.
 Initialization pass.
                           ----------------------------
                           !    Initial Parameters    !
                           ! (Angstroms and Degrees)  !
 --------------------------                            --------------------------
 ! Name  Definition              Value          Derivative Info.                !
 --------------------------------------------------------------------------------
 ! R1    R(1,2)                  1.3183         estimate D2E/DX2                !
 ! R2    R(2,3)                  1.4959         estimate D2E/DX2                !
 ! R3    R(2,7)                  1.4959         estimate D2E/DX2                !
 ! R4    R(3,4)                  1.5439         estimate D2E/DX2                !
 ! R5    R(3,8)                  1.5464         estimate D2E/DX2                !
 ! R6    R(3,9)                  1.5393         estimate D2E/DX2                !
 ! R7    R(4,5)                  1.5179         estimate D2E/DX2                !
 ! R8    R(4,13)                 1.0938         estimate D2E/DX2                !
 ! R9    R(4,14)                 1.0985         estimate D2E/DX2                !
 ! R10   R(5,6)                  1.5179         estimate D2E/DX2                !
 ! R11   R(5,12)                 1.2417         estimate D2E/DX2                !
 ! R12   R(6,7)                  1.5439         estimate D2E/DX2                !
 ! R13   R(6,15)                 1.0985         estimate D2E/DX2                !
 ! R14   R(6,16)                 1.0938         estimate D2E/DX2                !
 ! R15   R(7,10)                 1.5393         estimate D2E/DX2                !
 ! R16   R(7,11)                 1.5464         estimate D2E/DX2                !
 ! R17   R(8,17)                 1.0952         estimate D2E/DX2                !
 ! R18   R(8,18)                 1.0951         estimate D2E/DX2                !
 ! R19   R(8,19)                 1.0937         estimate D2E/DX2                !
 ! R20   R(9,20)                 1.0954         estimate D2E/DX2                !
 ! R21   R(9,21)                 1.0912         estimate D2E/DX2                !
 ! R22   R(9,22)                 1.0947         estimate D2E/DX2                !
 ! R23   R(10,23)                1.0947         estimate D2E/DX2                !
 ! R24   R(10,24)                1.0954         estimate D2E/DX2                !
 ! R25   R(10,25)                1.0912         estimate D2E/DX2                !
 ! R26   R(11,26)                1.0952         estimate D2E/DX2                !
 ! R27   R(11,27)                1.0951         estimate D2E/DX2                !
 ! R28   R(11,28)                1.0937         estimate D2E/DX2                !
 ! A1    A(1,2,3)              118.0399         estimate D2E/DX2                !
 ! A2    A(1,2,7)              118.0318         estimate D2E/DX2                !
 ! A3    A(3,2,7)              123.9284         estimate D2E/DX2                !
 ! A4    A(2,3,4)              109.1921         estimate D2E/DX2                !
 ! A5    A(2,3,8)              108.9189         estimate D2E/DX2                !
 ! A6    A(2,3,9)              108.685          estimate D2E/DX2                !
 ! A7    A(4,3,8)              111.2673         estimate D2E/DX2                !
 ! A8    A(4,3,9)              109.0766         estimate D2E/DX2                !
 ! A9    A(8,3,9)              109.6583         estimate D2E/DX2                !
 ! A10   A(3,4,5)              114.5322         estimate D2E/DX2                !
 ! A11   A(3,4,13)             109.8534         estimate D2E/DX2                !
 ! A12   A(3,4,14)             109.4179         estimate D2E/DX2                !
 ! A13   A(5,4,13)             108.6585         estimate D2E/DX2                !
 ! A14   A(5,4,14)             107.433          estimate D2E/DX2                !
 ! A15   A(13,4,14)            106.6295         estimate D2E/DX2                !
 ! A16   A(4,5,6)              116.4639         estimate D2E/DX2                !
 ! A17   A(4,5,12)             121.7658         estimate D2E/DX2                !
 ! A18   A(6,5,12)             121.7703         estimate D2E/DX2                !
 ! A19   A(5,6,7)              114.5264         estimate D2E/DX2                !
 ! A20   A(5,6,15)             107.4351         estimate D2E/DX2                !
 ! A21   A(5,6,16)             108.6614         estimate D2E/DX2                !
 ! A22   A(7,6,15)             109.4169         estimate D2E/DX2                !
 ! A23   A(7,6,16)             109.8529         estimate D2E/DX2                !
 ! A24   A(15,6,16)            106.6324         estimate D2E/DX2                !
 ! A25   A(2,7,6)              109.1949         estimate D2E/DX2                !
 ! A26   A(2,7,10)             108.6827         estimate D2E/DX2                !
 ! A27   A(2,7,11)             108.9162         estimate D2E/DX2                !
 ! A28   A(6,7,10)             109.0772         estimate D2E/DX2                !
 ! A29   A(6,7,11)             111.2661         estimate D2E/DX2                !
 ! A30   A(10,7,11)            109.6611         estimate D2E/DX2                !
 ! A31   A(3,8,17)             110.0474         estimate D2E/DX2                !
 ! A32   A(3,8,18)             112.1294         estimate D2E/DX2                !
 ! A33   A(3,8,19)             109.4033         estimate D2E/DX2                !
 ! A34   A(17,8,18)            108.0908         estimate D2E/DX2                !
 ! A35   A(17,8,19)            108.6997         estimate D2E/DX2                !
 ! A36   A(18,8,19)            108.3924         estimate D2E/DX2                !
 ! A37   A(3,9,20)             109.4006         estimate D2E/DX2                !
 ! A38   A(3,9,21)             110.6543         estimate D2E/DX2                !
 ! A39   A(3,9,22)             110.6878         estimate D2E/DX2                !
 ! A40   A(20,9,21)            109.1104         estimate D2E/DX2                !
 ! A41   A(20,9,22)            108.886          estimate D2E/DX2                !
 ! A42   A(21,9,22)            108.0598         estimate D2E/DX2                !
 ! A43   A(7,10,23)            110.6866         estimate D2E/DX2                !
 ! A44   A(7,10,24)            109.4038         estimate D2E/DX2                !
 ! A45   A(7,10,25)            110.6514         estimate D2E/DX2                !
 ! A46   A(23,10,24)           108.8851         estimate D2E/DX2                !
 ! A47   A(23,10,25)           108.0611         estimate D2E/DX2                !
 ! A48   A(24,10,25)           109.1109         estimate D2E/DX2                !
 ! A49   A(7,11,26)            110.0474         estimate D2E/DX2                !
 ! A50   A(7,11,27)            112.1285         estimate D2E/DX2                !
 ! A51   A(7,11,28)            109.4032         estimate D2E/DX2                !
 ! A52   A(26,11,27)           108.0912         estimate D2E/DX2                !
 ! A53   A(26,11,28)           108.7009         estimate D2E/DX2                !
 ! A54   A(27,11,28)           108.3919         estimate D2E/DX2                !
 ! D1    D(1,2,3,4)           -155.7359         estimate D2E/DX2                !
 ! D2    D(1,2,3,8)             82.5755         estimate D2E/DX2                !
 ! D3    D(1,2,3,9)            -36.8519         estimate D2E/DX2                !
 ! D4    D(7,2,3,4)             24.2636         estimate D2E/DX2                !
 ! D5    D(7,2,3,8)            -97.4249         estimate D2E/DX2                !
 ! D6    D(7,2,3,9)            143.1477         estimate D2E/DX2                !
 ! D7    D(1,2,7,6)           -155.8108         estimate D2E/DX2                !
 ! D8    D(1,2,7,10)           -36.9258         estimate D2E/DX2                !
 ! D9    D(1,2,7,11)            82.5021         estimate D2E/DX2                !
 ! D10   D(3,2,7,6)             24.1897         estimate D2E/DX2                !
 ! D11   D(3,2,7,10)           143.0747         estimate D2E/DX2                !
 ! D12   D(3,2,7,11)           -97.4975         estimate D2E/DX2                !
 ! D13   D(2,3,4,5)            -49.8524         estimate D2E/DX2                !
 ! D14   D(2,3,4,13)          -172.4471         estimate D2E/DX2                !
 ! D15   D(2,3,4,14)            70.8158         estimate D2E/DX2                !
 ! D16   D(8,3,4,5)             70.4047         estimate D2E/DX2                !
 ! D17   D(8,3,4,13)           -52.19           estimate D2E/DX2                !
 ! D18   D(8,3,4,14)          -168.9271         estimate D2E/DX2                !
 ! D19   D(9,3,4,5)           -168.4924         estimate D2E/DX2                !
 ! D20   D(9,3,4,13)            68.9128         estimate D2E/DX2                !
 ! D21   D(9,3,4,14)           -47.8243         estimate D2E/DX2                !
 ! D22   D(2,3,8,17)          -174.18           estimate D2E/DX2                !
 ! D23   D(2,3,8,18)            65.4733         estimate D2E/DX2                !
 ! D24   D(2,3,8,19)           -54.8154         estimate D2E/DX2                !
 ! D25   D(4,3,8,17)            65.4016         estimate D2E/DX2                !
 ! D26   D(4,3,8,18)           -54.9451         estimate D2E/DX2                !
 ! D27   D(4,3,8,19)          -175.2338         estimate D2E/DX2                !
 ! D28   D(9,3,8,17)           -55.36           estimate D2E/DX2                !
 ! D29   D(9,3,8,18)          -175.7067         estimate D2E/DX2                !
 ! D30   D(9,3,8,19)            64.0046         estimate D2E/DX2                !
 ! D31   D(2,3,9,20)          -176.2975         estimate D2E/DX2                !
 ! D32   D(2,3,9,21)            63.4579         estimate D2E/DX2                !
 ! D33   D(2,3,9,22)           -56.3099         estimate D2E/DX2                !
 ! D34   D(4,3,9,20)           -57.3409         estimate D2E/DX2                !
 ! D35   D(4,3,9,21)          -177.5855         estimate D2E/DX2                !
 ! D36   D(4,3,9,22)            62.6467         estimate D2E/DX2                !
 ! D37   D(8,3,9,20)            64.7382         estimate D2E/DX2                !
 ! D38   D(8,3,9,21)           -55.5063         estimate D2E/DX2                !
 ! D39   D(8,3,9,22)          -175.2742         estimate D2E/DX2                !
 ! D40   D(3,4,5,6)             25.7987         estimate D2E/DX2                !
 ! D41   D(3,4,5,12)          -154.2043         estimate D2E/DX2                !
 ! D42   D(13,4,5,6)           149.0382         estimate D2E/DX2                !
 ! D43   D(13,4,5,12)          -30.9648         estimate D2E/DX2                !
 ! D44   D(14,4,5,6)           -95.9608         estimate D2E/DX2                !
 ! D45   D(14,4,5,12)           84.0362         estimate D2E/DX2                !
 ! D46   D(4,5,6,7)             25.8797         estimate D2E/DX2                !
 ! D47   D(4,5,6,15)           -95.8764         estimate D2E/DX2                !
 ! D48   D(4,5,6,16)           149.1166         estimate D2E/DX2                !
 ! D49   D(12,5,6,7)          -154.1173         estimate D2E/DX2                !
 ! D50   D(12,5,6,15)           84.1266         estimate D2E/DX2                !
 ! D51   D(12,5,6,16)          -30.8803         estimate D2E/DX2                !
 ! D52   D(5,6,7,2)            -49.8597         estimate D2E/DX2                !
 ! D53   D(5,6,7,10)          -168.499          estimate D2E/DX2                !
 ! D54   D(5,6,7,11)            70.3952         estimate D2E/DX2                !
 ! D55   D(15,6,7,2)            70.8066         estimate D2E/DX2                !
 ! D56   D(15,6,7,10)          -47.8327         estimate D2E/DX2                !
 ! D57   D(15,6,7,11)         -168.9385         estimate D2E/DX2                !
 ! D58   D(16,6,7,2)          -172.4536         estimate D2E/DX2                !
 ! D59   D(16,6,7,10)           68.9072         estimate D2E/DX2                !
 ! D60   D(16,6,7,11)          -52.1987         estimate D2E/DX2                !
 ! D61   D(2,7,10,23)          -56.3272         estimate D2E/DX2                !
 ! D62   D(2,7,10,24)         -176.3149         estimate D2E/DX2                !
 ! D63   D(2,7,10,25)           63.4397         estimate D2E/DX2                !
 ! D64   D(6,7,10,23)           62.6317         estimate D2E/DX2                !
 ! D65   D(6,7,10,24)          -57.356          estimate D2E/DX2                !
 ! D66   D(6,7,10,25)         -177.6014         estimate D2E/DX2                !
 ! D67   D(11,7,10,23)        -175.2885         estimate D2E/DX2                !
 ! D68   D(11,7,10,24)          64.7238         estimate D2E/DX2                !
 ! D69   D(11,7,10,25)         -55.5216         estimate D2E/DX2                !
 ! D70   D(2,7,11,26)         -174.1885         estimate D2E/DX2                !
 ! D71   D(2,7,11,27)           65.465          estimate D2E/DX2                !
 ! D72   D(2,7,11,28)          -54.8224         estimate D2E/DX2                !
 ! D73   D(6,7,11,26)           65.3922         estimate D2E/DX2                !
 ! D74   D(6,7,11,27)          -54.9543         estimate D2E/DX2                !
 ! D75   D(6,7,11,28)         -175.2418         estimate D2E/DX2                !
 ! D76   D(10,7,11,26)         -55.3712         estimate D2E/DX2                !
 ! D77   D(10,7,11,27)        -175.7177         estimate D2E/DX2                !
 ! D78   D(10,7,11,28)          63.9948         estimate D2E/DX2                !
 --------------------------------------------------------------------------------
 Trust Radius=3.00D-01 FncErr=1.00D-07 GrdErr=1.00D-06 EigMax=2.50D+02 EigMin=1.00D-04
 Number of steps in this run=    168 maximum allowed number of steps=    168.
 GradGradGradGradGradGradGradGradGradGradGradGradGradGradGradGradGradGrad

 Leave Link  103 at Fri Jan 10 04:37:56 2025, MaxMem=  4026531840 cpu:               0.3 elap:               0.1
 (Enter /usr/local/intel/g16/l202.exe)
                          Input orientation:                          
 ---------------------------------------------------------------------
 Center     Atomic      Atomic             Coordinates (Angstroms)
 Number     Number       Type             X           Y           Z
 ---------------------------------------------------------------------
      1          8           0        0.001941   -2.334834    0.001346
      2          7           0        0.000914   -1.016519    0.000378
      3          6           0        1.320695   -0.312281   -0.003456
      4          6           0        1.144184    1.099873    0.595146
      5          6           0       -0.001664    1.897973    0.000019
      6          6           0       -1.145673    1.097766   -0.595742
      7          6           0       -1.320080   -0.314510    0.003189
      8          6           0        1.848383   -0.244084   -1.455410
      9          6           0        2.307249   -1.108893    0.869176
     10          6           0       -2.304714   -1.113123   -0.869781
     11          6           0       -1.848687   -0.246754    1.454823
     12          8           0       -0.003059    3.139687    0.000592
     13          1           0        2.068572    1.672264    0.475514
     14          1           0        0.962387    1.018496    1.675459
     15          1           0       -0.962935    1.016348   -1.675895
     16          1           0       -2.071159    1.668532   -0.476930
     17          1           0        2.860114    0.175112   -1.467874
     18          1           0        1.214510    0.378250   -2.095920
     19          1           0        1.881385   -1.252449   -1.877765
     20          1           0        3.258483   -0.569030    0.928394
     21          1           0        2.483960   -2.098523    0.444886
     22          1           0        1.910287   -1.239396    1.881016
     23          1           0       -1.907014   -1.243012   -1.881420
     24          1           0       -3.256967   -0.575121   -0.929554
     25          1           0       -2.479695   -2.103020   -0.445392
     26          1           0       -2.861077    0.170861    1.466608
     27          1           0       -1.216138    0.376745    2.095508
     28          1           0       -1.880325   -1.255053    1.877433
 ---------------------------------------------------------------------
                    Distance matrix (angstroms):
                    1          2          3          4          5
     1  O    0.000000
     2  N    1.318316   0.000000
     3  C    2.414509   1.495924   0.000000
     4  C    3.668042   2.477888   1.543910   0.000000
     5  C    4.232809   2.914493   2.575630   1.517929   0.000000
     6  C    3.668280   2.477947   2.902069   2.581020   1.517900
     7  C    2.414426   1.495944   2.640784   2.902325   2.575522
     8  C    3.146859   2.475705   1.546375   2.550862   3.182665
     9  C    2.751455   2.466277   1.539275   2.511267   3.889442
    10  C    2.751744   2.466258   3.812539   4.351811   3.889382
    11  C    3.146029   2.475676   3.489392   3.392599   3.182421
    12  O    5.474523   4.156208   3.697083   2.414643   1.241715
    13  H    4.533501   3.424984   2.174201   1.093817   2.136099
    14  H    3.869100   2.805639   2.172121   1.098521   2.123670
    15  H    3.869696   2.805609   3.126863   3.099122   2.123674
    16  H    4.533589   3.425027   3.956320   3.436735   2.136102
    17  H    4.077694   3.427940   2.179881   2.838248   3.648662
    18  H    3.637262   2.795114   2.206018   2.787027   2.860349
    19  H    2.869656   2.668193   2.170558   3.491729   4.122755
    20  H    3.818710   3.416609   2.165476   2.714139   4.192439
    21  H    2.532388   2.744784   2.178269   3.470924   4.727390
    22  H    2.893947   2.689271   2.181375   2.777149   4.127565
    23  H    2.894994   2.689359   3.848521   4.575183   4.127464
    24  H    3.818854   3.416635   4.677791   4.949792   4.192529
    25  H    2.532159   2.744561   4.224336   4.947094   4.727259
    26  H    4.077054   3.427929   4.458894   4.202931   3.648293
    27  H    3.636192   2.794990   3.363916   2.888792   2.860097
    28  H    2.868546   2.668201   3.830547   4.041979   4.122575
                    6          7          8          9         10
     6  C    0.000000
     7  C    1.543911   0.000000
     8  C    3.391749   3.488786   0.000000
     9  C    4.351781   3.812938   2.522331   0.000000
    10  C    2.511275   1.539274   4.283270   4.928914   0.000000
    11  C    2.550839   1.546369   4.705081   4.284632   2.522368
    12  O    2.414668   3.696759   4.122825   4.913491   4.913406
    13  H    3.436424   3.956428   2.729348   2.819002   5.356662
    14  H    3.099767   3.127786   3.490192   2.642826   4.657896
    15  H    1.098523   2.172109   3.088820   4.657053   2.642884
    16  H    1.093807   2.174187   4.469713   5.356916   2.818951
    17  H    4.202170   4.458450   1.095208   2.723257   5.356558
    18  H    2.887681   3.363082   1.095147   3.492487   4.014044
    19  H    4.041061   3.829764   1.093743   2.783461   4.308001
    20  H    4.949524   4.678036   2.788636   1.095356   5.871851
    21  H    4.947060   4.224751   2.730206   1.091154   5.062683
    22  H    4.575538   3.849275   3.482272   1.094728   5.034785
    23  H    2.777022   2.181366   3.909264   5.034261   1.094737
    24  H    2.714322   2.165516   5.143025   5.872039   1.095356
    25  H    3.470915   2.178233   4.817472   5.062728   1.091156
    26  H    2.838142   2.179874   5.557822   5.357825   2.723393
    27  H    2.787053   2.206000   4.731357   4.015628   3.492512
    28  H    3.491714   2.170550   5.102270   4.309724   2.783421
                   11         12         13         14         15
    11  C    0.000000
    12  O    4.121785   0.000000
    13  H    4.470637   2.582738   0.000000
    14  H    3.090578   2.869968   1.758103   0.000000
    15  H    3.490183   2.870634   3.774761   3.865028   0.000000
    16  H    2.729374   2.582511   4.247886   3.775940   1.758130
    17  H    5.558141   4.375255   2.577743   3.767387   3.920032
    18  H    4.730918   3.674693   3.002693   3.833638   2.307565
    19  H    5.102059   5.135194   3.758578   4.315918   3.643947
    20  H    5.144334   5.025242   2.577671   2.889706   5.207314
    21  H    4.818802   5.815626   3.793721   3.680394   5.106977
    22  H    3.911121   5.135490   3.237013   2.457406   5.098569
    23  H    3.482305   5.135666   5.464362   5.098948   2.457282
    24  H    2.788607   5.025225   5.948640   5.208518   2.890049
    25  H    2.730332   5.815377   5.982271   5.107817   3.680374
    26  H    1.095205   4.373945   5.247658   3.921859   3.767375
    27  H    1.095147   3.673429   3.884851   2.309601   3.833625
    28  H    1.093740   5.134238   5.111590   3.645659   4.315902
                   16         17         18         19         20
    16  H    0.000000
    17  H    5.246878   0.000000
    18  H    3.883501   1.773054   0.000000
    19  H    5.110487   1.778722   1.775245   0.000000
    20  H    5.948672   2.540580   3.771159   3.199686   0.000000
    21  H    5.982437   2.994922   3.768501   2.544336   1.781296
    22  H    5.465150   3.757402   4.349357   3.758915   1.781716
    23  H    3.236761   4.990752   3.523977   3.788413   5.918755
    24  H    2.577787   6.186382   4.718414   5.268827   6.775182
    25  H    3.793745   5.894821   4.746377   4.668424   6.096483
    26  H    2.577660   6.429870   5.417105   5.975081   6.187578
    27  H    3.002867   5.417950   4.845216   5.294886   4.720051
    28  H    3.758562   5.975635   5.294640   5.315259   5.270546
                   21         22         23         24         25
    21  H    0.000000
    22  H    1.769087   0.000000
    23  H    5.042247   5.359825   0.000000
    24  H    6.096563   5.919551   1.781713   0.000000
    25  H    5.042865   5.042813   1.769111   1.781303   0.000000
    26  H    5.896053   4.992642   3.757468   2.540632   2.995285
    27  H    4.747866   3.525968   4.349354   3.771211   3.768552
    28  H    4.670184   3.790646   3.758967   3.199473   2.544368
                   26         27         28
    26  H    0.000000
    27  H    1.773056   0.000000
    28  H    1.778731   1.775237   0.000000
 Stoichiometry    C9H16NO2(2)
 Framework group  C1[X(C9H16NO2)]
 Deg. of freedom    78
 Full point group                 C1      NOp   1
 Largest Abelian subgroup         C1      NOp   1
 Largest concise Abelian subgroup C1      NOp   1
                         Standard orientation:                         
 ---------------------------------------------------------------------
 Center     Atomic      Atomic             Coordinates (Angstroms)
 Number     Number       Type             X           Y           Z
 ---------------------------------------------------------------------
      1          8           0       -0.001939   -2.334834   -0.001346
      2          7           0       -0.000913   -1.016519   -0.000378
      3          6           0       -1.320695   -0.312282    0.003456
      4          6           0       -1.144185    1.099872   -0.595146
      5          6           0        0.001662    1.897973   -0.000019
      6          6           0        1.145672    1.097767    0.595742
      7          6           0        1.320080   -0.314509   -0.003189
      8          6           0       -1.848383   -0.244086    1.455410
      9          6           0       -2.307248   -1.108895   -0.869176
     10          6           0        2.304715   -1.113121    0.869781
     11          6           0        1.848687   -0.246752   -1.454823
     12          8           0        0.003056    3.139687   -0.000592
     13          1           0       -2.068574    1.672262   -0.475514
     14          1           0       -0.962388    1.018495   -1.675459
     15          1           0        0.962934    1.016349    1.675895
     16          1           0        2.071157    1.668534    0.476930
     17          1           0       -2.860114    0.175109    1.467874
     18          1           0       -1.214510    0.378249    2.095920
     19          1           0       -1.881384   -1.252451    1.877765
     20          1           0       -3.258482   -0.569033   -0.928394
     21          1           0       -2.483958   -2.098525   -0.444886
     22          1           0       -1.910286   -1.239398   -1.881016
     23          1           0        1.907015   -1.243010    1.881420
     24          1           0        3.256968   -0.575118    0.929554
     25          1           0        2.479697   -2.103018    0.445392
     26          1           0        2.861077    0.170864   -1.466608
     27          1           0        1.216138    0.376746   -2.095508
     28          1           0        1.880326   -1.255051   -1.877433
 ---------------------------------------------------------------------
 Rotational constants (GHZ):           1.0654208           1.0068756           0.6738743
 Leave Link  202 at Fri Jan 10 04:37:56 2025, MaxMem=  4026531840 cpu:               0.1 elap:               0.0
 (Enter /usr/local/intel/g16/l301.exe)
 Standard basis: def2TZVP (5D, 7F)
 Ernie: Thresh=  0.10000D-02 Tol=  0.10000D-05 Strict=F.
 There are   528 symmetry adapted cartesian basis functions of A   symmetry.
 There are   468 symmetry adapted basis functions of A   symmetry.
   468 basis functions,   740 primitive gaussians,   528 cartesian basis functions
    47 alpha electrons       46 beta electrons
       nuclear repulsion energy       789.8373210447 Hartrees.
 IExCor= 4336 DFT=T Ex+Corr=M062X ExCW=0 ScaHFX=  0.540000
 ScaDFX=  1.000000  1.000000  1.000000  1.000000 ScalE2=  1.000000  1.000000
 IRadAn=      5 IRanWt=     -1 IRanGd=            0 ICorTp=0 IEmpDi=  4
 NAtoms=   28 NActive=   28 NUniq=   28 SFac= 1.00D+00 NAtFMM=   60 NAOKFM=F Big=F
 Integral buffers will be    131072 words long.
 Raffenetti 2 integral format.
 Two-electron integral symmetry is turned on.
 Leave Link  301 at Fri Jan 10 04:37:56 2025, MaxMem=  4026531840 cpu:               1.3 elap:               0.1
 (Enter /usr/local/intel/g16/l302.exe)
 NPDir=0 NMtPBC=     1 NCelOv=     1 NCel=       1 NClECP=     1 NCelD=      1
         NCelK=      1 NCelE2=     1 NClLst=     1 CellRange=     0.0.
 One-electron integrals computed using PRISM.
 One-electron integral symmetry used in STVInt
   1 Symmetry operations used in ECPInt.
 ECPInt:  NShTT=   19306 NPrTT=   56928 LenC2=   18751 LenP2D=   42975.
 LDataN:  DoStor=T MaxTD1= 6 Len=  172
 NBasis=   468 RedAO= T EigKep=  3.80D-05  NBF=   468
 NBsUse=   468 1.00D-06 EigRej= -1.00D+00 NBFU=   468
 Precomputing XC quadrature grid using
 IXCGrd= 4 IRadAn=           5 IRanWt=          -1 IRanGd=           0 AccXCQ= 0.00D+00.
 Generated NRdTot=       0 NPtTot=           0 NUsed=           0 NTot=          32
 NSgBfM=   525   525   525   525   525 MxSgAt=    28 MxSgA2=    28.
 Leave Link  302 at Fri Jan 10 04:37:57 2025, MaxMem=  4026531840 cpu:              16.4 elap:               0.8
 (Enter /usr/local/intel/g16/l303.exe)
 DipDrv:  MaxL=1.
 Leave Link  303 at Fri Jan 10 04:37:57 2025, MaxMem=  4026531840 cpu:               2.6 elap:               0.2
 (Enter /usr/local/intel/g16/l401.exe)
 ExpMin= 9.52D-02 ExpMax= 2.70D+04 ExpMxC= 9.22D+02 IAcc=3 IRadAn=         5 AccDes= 0.00D+00
 Harris functional with IExCor= 1009 and IRadAn=       5 diagonalized for initial guess.
 HarFok:  IExCor= 1009 AccDes= 0.00D+00 IRadAn=         5 IDoV= 1 UseB2=F ITyADJ=14
 ICtDFT=  3500011 ScaDFX=  1.000000  1.000000  1.000000  1.000000
 FoFCou: FMM=F IPFlag=           0 FMFlag=      100000 FMFlg1=           0
         NFxFlg=           0 DoJE=T BraDBF=F KetDBF=T FulRan=T
         wScrn=  0.000000 ICntrl=       500 IOpCl=  0 I1Cent=   200000004 NGrid=           0
         NMat0=    1 NMatS0=      1 NMatT0=    0 NMatD0=    1 NMtDS0=    0 NMtDT0=    0
 Petite list used in FoFCou.
 Harris En= -557.481554582120    
 JPrj=0 DoOrth=F DoCkMO=F.
 Initial guess <Sx>= 0.0000 <Sy>= 0.0000 <Sz>= 0.5000 <S**2>= 0.7500 S= 0.5000
 Leave Link  401 at Fri Jan 10 04:38:00 2025, MaxMem=  4026531840 cpu:              52.8 elap:               2.7
 (Enter /usr/local/intel/g16/l502.exe)
 Integral symmetry usage will be decided dynamically.
 UHF open shell SCF:
 Using DIIS extrapolation, IDIIS=  1040.
 NGot=  4026531840 LenX=  4025958202 LenY=  4025678890
 Requested convergence on RMS density matrix=1.00D-08 within 128 cycles.
 Requested convergence on MAX density matrix=1.00D-06.
 Requested convergence on             energy=1.00D-06.
 No special actions if energy rises.
 Fock matrices will be formed incrementally for  20 cycles.
 Integral accuracy reduced to 1.0D-05 until final iterations.

 Cycle   1  Pass 0  IDiag  1:
 FoFJK:  IHMeth= 1 ICntrl=       0 DoSepK=F KAlg= 0 I1Cent=           0 FoldK=F
 IRaf= 940000000 NMat=       1 IRICut=       1 DoRegI=T DoRafI=F ISym2E= 0 IDoP0=0 IntGTp=1.
 FoFCou: FMM=F IPFlag=           0 FMFlag=      100000 FMFlg1=           0
         NFxFlg=           0 DoJE=F BraDBF=F KetDBF=F FulRan=T
         wScrn=  0.000000 ICntrl=         0 IOpCl=  1 I1Cent=           0 NGrid=           0
         NMat0=    1 NMatS0=      1 NMatT0=    0 NMatD0=    1 NMtDS0=    0 NMtDT0=    0
 Symmetry not used in FoFCou.
 E= -557.258515855338    
 DIIS: error= 3.18D-02 at cycle   1 NSaved=   1.
 NSaved= 1 IEnMin= 1 EnMin= -557.258515855338     IErMin= 1 ErrMin= 3.18D-02
 ErrMax= 3.18D-02  0.00D+00 EMaxC= 1.00D-01 BMatC= 2.17D+00 BMatP= 2.17D+00
 IDIUse=3 WtCom= 6.82D-01 WtEn= 3.18D-01
 Coeff-Com:  0.100D+01
 Coeff-En:   0.100D+01
 Coeff:      0.100D+01
 Gap=     0.290 Goal=   None    Shift=    0.000
 Gap=     0.224 Goal=   None    Shift=    0.000
 GapD=    0.224 DampG=1.000 DampE=0.500 DampFc=0.5000 IDamp=-1.
 Damping current iteration by 5.00D-01
 RMSDP=4.91D-03 MaxDP=6.19D-01              OVMax= 1.93D-01

 Cycle   2  Pass 0  IDiag  1:
 RMSU=  2.45D-03    CP:  1.01D+00
 E= -557.462829776205     Delta-E=       -0.204313920866 Rises=F Damp=T
 DIIS: error= 7.45D-03 at cycle   2 NSaved=   2.
 NSaved= 2 IEnMin= 2 EnMin= -557.462829776205     IErMin= 2 ErrMin= 7.45D-03
 ErrMax= 7.45D-03  0.00D+00 EMaxC= 1.00D-01 BMatC= 1.94D-01 BMatP= 2.17D+00
 IDIUse=3 WtCom= 9.26D-01 WtEn= 7.45D-02
 Coeff-Com:  0.109D-01 0.989D+00
 Coeff-En:   0.000D+00 0.100D+01
 Coeff:      0.101D-01 0.990D+00
 Gap=     0.291 Goal=   None    Shift=    0.000
 Gap=     0.320 Goal=   None    Shift=    0.000
 RMSDP=1.27D-03 MaxDP=1.55D-01 DE=-2.04D-01 OVMax= 1.45D-01

 Cycle   3  Pass 0  IDiag  1:
 RMSU=  1.11D-03    CP:  9.84D-01  7.55D-01
 E= -557.659635095543     Delta-E=       -0.196805319338 Rises=F Damp=F
 DIIS: error= 7.80D-03 at cycle   3 NSaved=   3.
 NSaved= 3 IEnMin= 3 EnMin= -557.659635095543     IErMin= 2 ErrMin= 7.45D-03
 ErrMax= 7.80D-03  0.00D+00 EMaxC= 1.00D-01 BMatC= 1.62D-01 BMatP= 1.94D-01
 IDIUse=3 WtCom= 9.22D-01 WtEn= 7.80D-02
 Coeff-Com: -0.641D-01 0.505D+00 0.559D+00
 Coeff-En:   0.000D+00 0.000D+00 0.100D+01
 Coeff:     -0.591D-01 0.466D+00 0.593D+00
 Gap=     0.274 Goal=   None    Shift=    0.000
 Gap=     0.303 Goal=   None    Shift=    0.000
 RMSDP=4.74D-04 MaxDP=3.28D-02 DE=-1.97D-01 OVMax= 8.44D-02

 Cycle   4  Pass 0  IDiag  1:
 RMSU=  4.06D-04    CP:  9.90D-01  8.39D-01  8.86D-01
 E= -557.684419973095     Delta-E=       -0.024784877552 Rises=F Damp=F
 DIIS: error= 4.26D-03 at cycle   4 NSaved=   4.
 NSaved= 4 IEnMin= 4 EnMin= -557.684419973095     IErMin= 4 ErrMin= 4.26D-03
 ErrMax= 4.26D-03  0.00D+00 EMaxC= 1.00D-01 BMatC= 3.38D-02 BMatP= 1.62D-01
 IDIUse=3 WtCom= 9.57D-01 WtEn= 4.26D-02
 Coeff-Com: -0.158D-01 0.485D-01 0.329D+00 0.638D+00
 Coeff-En:   0.000D+00 0.000D+00 0.190D+00 0.810D+00
 Coeff:     -0.151D-01 0.464D-01 0.323D+00 0.645D+00
 Gap=     0.272 Goal=   None    Shift=    0.000
 Gap=     0.307 Goal=   None    Shift=    0.000
 RMSDP=2.25D-04 MaxDP=2.12D-02 DE=-2.48D-02 OVMax= 1.61D-02

 Cycle   5  Pass 0  IDiag  1:
 RMSU=  1.13D-04    CP:  9.85D-01  7.87D-01  9.60D-01  7.10D-01
 E= -557.690942275879     Delta-E=       -0.006522302784 Rises=F Damp=F
 DIIS: error= 5.13D-04 at cycle   5 NSaved=   5.
 NSaved= 5 IEnMin= 5 EnMin= -557.690942275879     IErMin= 5 ErrMin= 5.13D-04
 ErrMax= 5.13D-04  0.00D+00 EMaxC= 1.00D-01 BMatC= 5.32D-04 BMatP= 3.38D-02
 IDIUse=3 WtCom= 9.95D-01 WtEn= 5.13D-03
 Coeff-Com: -0.229D-02-0.965D-03 0.103D+00 0.233D+00 0.667D+00
 Coeff-En:   0.000D+00 0.000D+00 0.000D+00 0.000D+00 0.100D+01
 Coeff:     -0.228D-02-0.960D-03 0.103D+00 0.232D+00 0.669D+00
 Gap=     0.270 Goal=   None    Shift=    0.000
 Gap=     0.307 Goal=   None    Shift=    0.000
 RMSDP=2.90D-05 MaxDP=2.36D-03 DE=-6.52D-03 OVMax= 8.12D-03

 Cycle   6  Pass 0  IDiag  1:
 RMSU=  2.82D-05    CP:  9.85D-01  7.88D-01  9.63D-01  7.24D-01  9.98D-01
 E= -557.691084049654     Delta-E=       -0.000141773775 Rises=F Damp=F
 DIIS: error= 3.64D-04 at cycle   6 NSaved=   6.
 NSaved= 6 IEnMin= 6 EnMin= -557.691084049654     IErMin= 6 ErrMin= 3.64D-04
 ErrMax= 3.64D-04  0.00D+00 EMaxC= 1.00D-01 BMatC= 1.12D-04 BMatP= 5.32D-04
 IDIUse=3 WtCom= 9.96D-01 WtEn= 3.64D-03
 Coeff-Com:  0.323D-02-0.109D-01-0.234D-01-0.520D-01 0.207D+00 0.876D+00
 Coeff-En:   0.000D+00 0.000D+00 0.000D+00 0.000D+00 0.000D+00 0.100D+01
 Coeff:      0.322D-02-0.109D-01-0.233D-01-0.518D-01 0.207D+00 0.876D+00
 Gap=     0.272 Goal=   None    Shift=    0.000
 Gap=     0.308 Goal=   None    Shift=    0.000
 RMSDP=3.57D-05 MaxDP=2.53D-03 DE=-1.42D-04 OVMax= 4.46D-03

 Cycle   7  Pass 0  IDiag  1:
 RMSU=  1.68D-05    CP:  9.85D-01  7.81D-01  9.69D-01  7.27D-01  1.21D+00
                    CP:  1.31D+00
 E= -557.691129994244     Delta-E=       -0.000045944590 Rises=F Damp=F
 DIIS: error= 1.03D-04 at cycle   7 NSaved=   7.
 NSaved= 7 IEnMin= 7 EnMin= -557.691129994244     IErMin= 7 ErrMin= 1.03D-04
 ErrMax= 1.03D-04  0.00D+00 EMaxC= 1.00D-01 BMatC= 1.75D-05 BMatP= 1.12D-04
 IDIUse=3 WtCom= 9.99D-01 WtEn= 1.03D-03
 Coeff-Com:  0.113D-02-0.155D-02-0.172D-01-0.526D-01-0.101D+00 0.673D-01
 Coeff-Com:  0.110D+01
 Coeff-En:   0.000D+00 0.000D+00 0.000D+00 0.000D+00 0.000D+00 0.000D+00
 Coeff-En:   0.100D+01
 Coeff:      0.113D-02-0.155D-02-0.172D-01-0.525D-01-0.101D+00 0.673D-01
 Coeff:      0.110D+01
 Gap=     0.272 Goal=   None    Shift=    0.000
 Gap=     0.308 Goal=   None    Shift=    0.000
 RMSDP=2.12D-05 MaxDP=2.08D-03 DE=-4.59D-05 OVMax= 3.91D-03

 Cycle   8  Pass 0  IDiag  1:
 RMSU=  6.40D-06    CP:  9.84D-01  7.76D-01  9.72D-01  7.23D-01  1.32D+00
                    CP:  1.59D+00  1.40D+00
 E= -557.691141888414     Delta-E=       -0.000011894171 Rises=F Damp=F
 DIIS: error= 6.38D-05 at cycle   8 NSaved=   8.
 NSaved= 8 IEnMin= 8 EnMin= -557.691141888414     IErMin= 8 ErrMin= 6.38D-05
 ErrMax= 6.38D-05  0.00D+00 EMaxC= 1.00D-01 BMatC= 4.15D-06 BMatP= 1.75D-05
 IDIUse=1 WtCom= 1.00D+00 WtEn= 0.00D+00
 Coeff-Com:  0.121D-03 0.563D-03-0.293D-02-0.148D-01-0.620D-01-0.854D-01
 Coeff-Com:  0.408D+00 0.757D+00
 Coeff:      0.121D-03 0.563D-03-0.293D-02-0.148D-01-0.620D-01-0.854D-01
 Coeff:      0.408D+00 0.757D+00
 Gap=     0.272 Goal=   None    Shift=    0.000
 Gap=     0.308 Goal=   None    Shift=    0.000
 RMSDP=7.07D-06 MaxDP=4.38D-04 DE=-1.19D-05 OVMax= 9.37D-04

 Initial convergence to 1.0D-05 achieved.  Increase integral accuracy.
 Cycle   9  Pass 1  IDiag  1:
 E= -557.691180227850     Delta-E=       -0.000038339436 Rises=F Damp=F
 DIIS: error= 9.04D-05 at cycle   1 NSaved=   1.
 NSaved= 1 IEnMin= 1 EnMin= -557.691180227850     IErMin= 1 ErrMin= 9.04D-05
 ErrMax= 9.04D-05  0.00D+00 EMaxC= 1.00D-01 BMatC= 1.34D-05 BMatP= 1.34D-05
 IDIUse=1 WtCom= 1.00D+00 WtEn= 0.00D+00
 Coeff-Com:  0.100D+01
 Coeff:      0.100D+01
 Gap=     0.272 Goal=   None    Shift=    0.000
 Gap=     0.308 Goal=   None    Shift=    0.000
 RMSDP=7.07D-06 MaxDP=4.38D-04 DE=-3.83D-05 OVMax= 5.75D-04

 Cycle  10  Pass 1  IDiag  1:
 RMSU=  3.75D-05    CP:  1.00D+00
 E= -557.691181543805     Delta-E=       -0.000001315955 Rises=F Damp=F
 DIIS: error= 3.13D-05 at cycle   2 NSaved=   2.
 NSaved= 2 IEnMin= 2 EnMin= -557.691181543805     IErMin= 2 ErrMin= 3.13D-05
 ErrMax= 3.13D-05  0.00D+00 EMaxC= 1.00D-01 BMatC= 2.33D-06 BMatP= 1.34D-05
 IDIUse=1 WtCom= 1.00D+00 WtEn= 0.00D+00
 Coeff-Com:  0.183D+00 0.817D+00
 Coeff:      0.183D+00 0.817D+00
 Gap=     0.272 Goal=   None    Shift=    0.000
 Gap=     0.308 Goal=   None    Shift=    0.000
 RMSDP=4.98D-06 MaxDP=5.69D-04 DE=-1.32D-06 OVMax= 3.34D-04

 Cycle  11  Pass 1  IDiag  1:
 RMSU=  4.69D-06    CP:  1.00D+00  1.03D+00
 E= -557.691181531932     Delta-E=        0.000000011873 Rises=F Damp=F
 DIIS: error= 3.81D-05 at cycle   3 NSaved=   3.
 NSaved= 3 IEnMin= 2 EnMin= -557.691181543805     IErMin= 2 ErrMin= 3.13D-05
 ErrMax= 3.81D-05  0.00D+00 EMaxC= 1.00D-01 BMatC= 2.79D-06 BMatP= 2.33D-06
 IDIUse=1 WtCom= 1.00D+00 WtEn= 0.00D+00
 Coeff-Com: -0.159D-01 0.528D+00 0.488D+00
 Coeff:     -0.159D-01 0.528D+00 0.488D+00
 Gap=     0.272 Goal=   None    Shift=    0.000
 Gap=     0.308 Goal=   None    Shift=    0.000
 RMSDP=2.27D-06 MaxDP=2.60D-04 DE= 1.19D-08 OVMax= 1.98D-04

 Cycle  12  Pass 1  IDiag  1:
 RMSU=  9.35D-07    CP:  1.00D+00  1.04D+00  5.75D-01
 E= -557.691182049581     Delta-E=       -0.000000517648 Rises=F Damp=F
 DIIS: error= 5.48D-06 at cycle   4 NSaved=   4.
 NSaved= 4 IEnMin= 4 EnMin= -557.691182049581     IErMin= 4 ErrMin= 5.48D-06
 ErrMax= 5.48D-06  0.00D+00 EMaxC= 1.00D-01 BMatC= 3.95D-08 BMatP= 2.33D-06
 IDIUse=1 WtCom= 1.00D+00 WtEn= 0.00D+00
 Coeff-Com: -0.451D-02-0.818D-01-0.142D-01 0.110D+01
 Coeff:     -0.451D-02-0.818D-01-0.142D-01 0.110D+01
 Gap=     0.272 Goal=   None    Shift=    0.000
 Gap=     0.308 Goal=   None    Shift=    0.000
 RMSDP=5.96D-07 MaxDP=5.15D-05 DE=-5.18D-07 OVMax= 1.80D-04

 Cycle  13  Pass 1  IDiag  1:
 RMSU=  3.73D-07    CP:  1.00D+00  1.04D+00  6.09D-01  1.46D+00
 E= -557.691182079886     Delta-E=       -0.000000030305 Rises=F Damp=F
 DIIS: error= 5.65D-06 at cycle   5 NSaved=   5.
 NSaved= 5 IEnMin= 5 EnMin= -557.691182079886     IErMin= 4 ErrMin= 5.48D-06
 ErrMax= 5.65D-06  0.00D+00 EMaxC= 1.00D-01 BMatC= 3.59D-08 BMatP= 3.95D-08
 IDIUse=1 WtCom= 1.00D+00 WtEn= 0.00D+00
 Coeff-Com:  0.547D-02-0.369D+00-0.284D+00 0.803D+00 0.844D+00
 Coeff:      0.547D-02-0.369D+00-0.284D+00 0.803D+00 0.844D+00
 Gap=     0.272 Goal=   None    Shift=    0.000
 Gap=     0.308 Goal=   None    Shift=    0.000
 RMSDP=6.69D-07 MaxDP=3.31D-05 DE=-3.03D-08 OVMax= 1.24D-04

 Cycle  14  Pass 1  IDiag  1:
 RMSU=  2.71D-07    CP:  1.00D+00  1.04D+00  6.54D-01  2.05D+00  1.42D+00
 E= -557.691182095783     Delta-E=       -0.000000015897 Rises=F Damp=F
 DIIS: error= 1.51D-06 at cycle   6 NSaved=   6.
 NSaved= 6 IEnMin= 6 EnMin= -557.691182095783     IErMin= 6 ErrMin= 1.51D-06
 ErrMax= 1.51D-06  0.00D+00 EMaxC= 1.00D-01 BMatC= 4.31D-09 BMatP= 3.59D-08
 IDIUse=1 WtCom= 1.00D+00 WtEn= 0.00D+00
 Coeff-Com:  0.358D-02-0.189D+00-0.150D+00 0.338D+00 0.460D+00 0.538D+00
 Coeff:      0.358D-02-0.189D+00-0.150D+00 0.338D+00 0.460D+00 0.538D+00
 Gap=     0.272 Goal=   None    Shift=    0.000
 Gap=     0.308 Goal=   None    Shift=    0.000
 RMSDP=9.23D-08 MaxDP=8.34D-06 DE=-1.59D-08 OVMax= 2.90D-05

 Cycle  15  Pass 1  IDiag  1:
 RMSU=  6.60D-08    CP:  1.00D+00  1.04D+00  6.65D-01  2.09D+00  1.45D+00
                    CP:  1.03D+00
 E= -557.691182096876     Delta-E=       -0.000000001094 Rises=F Damp=F
 DIIS: error= 4.51D-07 at cycle   7 NSaved=   7.
 NSaved= 7 IEnMin= 7 EnMin= -557.691182096876     IErMin= 7 ErrMin= 4.51D-07
 ErrMax= 4.51D-07  0.00D+00 EMaxC= 1.00D-01 BMatC= 2.82D-10 BMatP= 4.31D-09
 IDIUse=1 WtCom= 1.00D+00 WtEn= 0.00D+00
 Coeff-Com:  0.153D-03 0.232D-02 0.678D-03-0.296D-01-0.189D-01 0.173D+00
 Coeff-Com:  0.872D+00
 Coeff:      0.153D-03 0.232D-02 0.678D-03-0.296D-01-0.189D-01 0.173D+00
 Coeff:      0.872D+00
 Gap=     0.272 Goal=   None    Shift=    0.000
 Gap=     0.308 Goal=   None    Shift=    0.000
 RMSDP=5.80D-08 MaxDP=4.83D-06 DE=-1.09D-09 OVMax= 7.32D-06

 Cycle  16  Pass 1  IDiag  1:
 RMSU=  2.02D-08    CP:  1.00D+00  1.04D+00  6.62D-01  2.12D+00  1.51D+00
                    CP:  1.16D+00  1.00D+00
 E= -557.691182096972     Delta-E=       -0.000000000095 Rises=F Damp=F
 DIIS: error= 7.75D-08 at cycle   8 NSaved=   8.
 NSaved= 8 IEnMin= 8 EnMin= -557.691182096972     IErMin= 8 ErrMin= 7.75D-08
 ErrMax= 7.75D-08  0.00D+00 EMaxC= 1.00D-01 BMatC= 9.82D-12 BMatP= 2.82D-10
 IDIUse=1 WtCom= 1.00D+00 WtEn= 0.00D+00
 Coeff-Com: -0.219D-03 0.138D-01 0.106D-01-0.290D-01-0.372D-01 0.247D-02
 Coeff-Com:  0.168D+00 0.872D+00
 Coeff:     -0.219D-03 0.138D-01 0.106D-01-0.290D-01-0.372D-01 0.247D-02
 Coeff:      0.168D+00 0.872D+00
 Gap=     0.272 Goal=   None    Shift=    0.000
 Gap=     0.308 Goal=   None    Shift=    0.000
 RMSDP=1.26D-08 MaxDP=1.15D-06 DE=-9.55D-11 OVMax= 1.83D-06

 Cycle  17  Pass 1  IDiag  1:
 RMSU=  6.99D-09    CP:  1.00D+00  1.04D+00  6.61D-01  2.12D+00  1.52D+00
                    CP:  1.17D+00  1.03D+00  1.22D+00
 E= -557.691182096975     Delta-E=       -0.000000000003 Rises=F Damp=F
 DIIS: error= 5.70D-08 at cycle   9 NSaved=   9.
 NSaved= 9 IEnMin= 9 EnMin= -557.691182096975     IErMin= 9 ErrMin= 5.70D-08
 ErrMax= 5.70D-08  0.00D+00 EMaxC= 1.00D-01 BMatC= 2.42D-12 BMatP= 9.82D-12
 IDIUse=1 WtCom= 1.00D+00 WtEn= 0.00D+00
 Coeff-Com: -0.759D-04 0.361D-02 0.279D-02-0.457D-02-0.910D-02-0.152D-01
 Coeff-Com: -0.462D-01 0.245D+00 0.824D+00
 Coeff:     -0.759D-04 0.361D-02 0.279D-02-0.457D-02-0.910D-02-0.152D-01
 Coeff:     -0.462D-01 0.245D+00 0.824D+00
 Gap=     0.272 Goal=   None    Shift=    0.000
 Gap=     0.308 Goal=   None    Shift=    0.000
 RMSDP=3.84D-09 MaxDP=2.99D-07 DE=-3.18D-12 OVMax= 1.32D-06

 SCF Done:  E(UM062X) =  -557.691182097     A.U. after   17 cycles
            NFock= 17  Conv=0.38D-08     -V/T= 2.0059
 <Sx>= 0.0000 <Sy>= 0.0000 <Sz>= 0.5000 <S**2>= 0.7561 S= 0.5031
 <L.S>=  0.00000000000    
 KE= 5.544295669069D+02 PE=-2.878326559150D+03 EE= 9.763684891019D+02
 Annihilation of the first spin contaminant:
 S**2 before annihilation     0.7561,   after     0.7500
 Leave Link  502 at Fri Jan 10 04:42:51 2025, MaxMem=  4026531840 cpu:            5824.5 elap:             291.4
 (Enter /usr/local/intel/g16/l601.exe)
 Copying SCF densities to generalized density rwf, IOpCl= 1 IROHF=0.

 **********************************************************************

            Population analysis using the SCF Density.

 **********************************************************************

 Orbital symmetries:
 Alpha Orbitals:
       Occupied  (A) (A) (A) (A) (A) (A) (A) (A) (A) (A) (A) (A)
                 (A) (A) (A) (A) (A) (A) (A) (A) (A) (A) (A) (A)
                 (A) (A) (A) (A) (A) (A) (A) (A) (A) (A) (A) (A)
                 (A) (A) (A) (A) (A) (A) (A) (A) (A) (A) (A)
       Virtual   (A) (A) (A) (A) (A) (A) (A) (A) (A) (A) (A) (A)
                 (A) (A) (A) (A) (A) (A) (A) (A) (A) (A) (A) (A)
                 (A) (A) (A) (A) (A) (A) (A) (A) (A) (A) (A) (A)
                 (A) (A) (A) (A) (A) (A) (A) (A) (A) (A) (A) (A)
                 (A) (A) (A) (A) (A) (A) (A) (A) (A) (A) (A) (A)
                 (A) (A) (A) (A) (A) (A) (A) (A) (A) (A) (A) (A)
                 (A) (A) (A) (A) (A) (A) (A) (A) (A) (A) (A) (A)
                 (A) (A) (A) (A) (A) (A) (A) (A) (A) (A) (A) (A)
                 (A) (A) (A) (A) (A) (A) (A) (A) (A) (A) (A) (A)
                 (A) (A) (A) (A) (A) (A) (A) (A) (A) (A) (A) (A)
                 (A) (A) (A) (A) (A) (A) (A) (A) (A) (A) (A) (A)
                 (A) (A) (A) (A) (A) (A) (A) (A) (A) (A) (A) (A)
                 (A) (A) (A) (A) (A) (A) (A) (A) (A) (A) (A) (A)
                 (A) (A) (A) (A) (A) (A) (A) (A) (A) (A) (A) (A)
                 (A) (A) (A) (A) (A) (A) (A) (A) (A) (A) (A) (A)
                 (A) (A) (A) (A) (A) (A) (A) (A) (A) (A) (A) (A)
                 (A) (A) (A) (A) (A) (A) (A) (A) (A) (A) (A) (A)
                 (A) (A) (A) (A) (A) (A) (A) (A) (A) (A) (A) (A)
                 (A) (A) (A) (A) (A) (A) (A) (A) (A) (A) (A) (A)
                 (A) (A) (A) (A) (A) (A) (A) (A) (A) (A) (A) (A)
                 (A) (A) (A) (A) (A) (A) (A) (A) (A) (A) (A) (A)
                 (A) (A) (A) (A) (A) (A) (A) (A) (A) (A) (A) (A)
                 (A) (A) (A) (A) (A) (A) (A) (A) (A) (A) (A) (A)
                 (A) (A) (A) (A) (A) (A) (A) (A) (A) (A) (A) (A)
                 (A) (A) (A) (A) (A) (A) (A) (A) (A) (A) (A) (A)
                 (A) (A) (A) (A) (A) (A) (A) (A) (A) (A) (A) (A)
                 (A) (A) (A) (A) (A) (A) (A) (A) (A) (A) (A) (A)
                 (A) (A) (A) (A) (A) (A) (A) (A) (A) (A) (A) (A)
                 (A) (A) (A) (A) (A) (A) (A) (A) (A) (A) (A) (A)
                 (A) (A) (A) (A) (A) (A) (A) (A) (A) (A) (A) (A)
                 (A) (A) (A) (A) (A) (A) (A) (A) (A) (A) (A) (A)
                 (A) (A) (A) (A) (A) (A) (A) (A) (A) (A) (A) (A)
                 (A) (A) (A) (A) (A) (A) (A) (A) (A) (A) (A) (A)
                 (A) (A) (A) (A) (A) (A) (A) (A) (A) (A) (A) (A)
                 (A) (A) (A) (A) (A) (A) (A) (A) (A) (A) (A) (A)
                 (A)
 Beta  Orbitals:
       Occupied  (A) (A) (A) (A) (A) (A) (A) (A) (A) (A) (A) (A)
                 (A) (A) (A) (A) (A) (A) (A) (A) (A) (A) (A) (A)
                 (A) (A) (A) (A) (A) (A) (A) (A) (A) (A) (A) (A)
                 (A) (A) (A) (A) (A) (A) (A) (A) (A) (A)
       Virtual   (A) (A) (A) (A) (A) (A) (A) (A) (A) (A) (A) (A)
                 (A) (A) (A) (A) (A) (A) (A) (A) (A) (A) (A) (A)
                 (A) (A) (A) (A) (A) (A) (A) (A) (A) (A) (A) (A)
                 (A) (A) (A) (A) (A) (A) (A) (A) (A) (A) (A) (A)
                 (A) (A) (A) (A) (A) (A) (A) (A) (A) (A) (A) (A)
                 (A) (A) (A) (A) (A) (A) (A) (A) (A) (A) (A) (A)
                 (A) (A) (A) (A) (A) (A) (A) (A) (A) (A) (A) (A)
                 (A) (A) (A) (A) (A) (A) (A) (A) (A) (A) (A) (A)
                 (A) (A) (A) (A) (A) (A) (A) (A) (A) (A) (A) (A)
                 (A) (A) (A) (A) (A) (A) (A) (A) (A) (A) (A) (A)
                 (A) (A) (A) (A) (A) (A) (A) (A) (A) (A) (A) (A)
                 (A) (A) (A) (A) (A) (A) (A) (A) (A) (A) (A) (A)
                 (A) (A) (A) (A) (A) (A) (A) (A) (A) (A) (A) (A)
                 (A) (A) (A) (A) (A) (A) (A) (A) (A) (A) (A) (A)
                 (A) (A) (A) (A) (A) (A) (A) (A) (A) (A) (A) (A)
                 (A) (A) (A) (A) (A) (A) (A) (A) (A) (A) (A) (A)
                 (A) (A) (A) (A) (A) (A) (A) (A) (A) (A) (A) (A)
                 (A) (A) (A) (A) (A) (A) (A) (A) (A) (A) (A) (A)
                 (A) (A) (A) (A) (A) (A) (A) (A) (A) (A) (A) (A)
                 (A) (A) (A) (A) (A) (A) (A) (A) (A) (A) (A) (A)
                 (A) (A) (A) (A) (A) (A) (A) (A) (A) (A) (A) (A)
                 (A) (A) (A) (A) (A) (A) (A) (A) (A) (A) (A) (A)
                 (A) (A) (A) (A) (A) (A) (A) (A) (A) (A) (A) (A)
                 (A) (A) (A) (A) (A) (A) (A) (A) (A) (A) (A) (A)
                 (A) (A) (A) (A) (A) (A) (A) (A) (A) (A) (A) (A)
                 (A) (A) (A) (A) (A) (A) (A) (A) (A) (A) (A) (A)
                 (A) (A) (A) (A) (A) (A) (A) (A) (A) (A) (A) (A)
                 (A) (A) (A) (A) (A) (A) (A) (A) (A) (A) (A) (A)
                 (A) (A) (A) (A) (A) (A) (A) (A) (A) (A) (A) (A)
                 (A) (A) (A) (A) (A) (A) (A) (A) (A) (A) (A) (A)
                 (A) (A) (A) (A) (A) (A) (A) (A) (A) (A) (A) (A)
                 (A) (A) (A) (A) (A) (A) (A) (A) (A) (A) (A) (A)
                 (A) (A) (A) (A) (A) (A) (A) (A) (A) (A) (A) (A)
                 (A) (A) (A) (A) (A) (A) (A) (A) (A) (A) (A) (A)
                 (A) (A) (A) (A) (A) (A) (A) (A) (A) (A) (A) (A)
                 (A) (A)
 The electronic state is 2-A.
 Alpha  occ. eigenvalues --  -19.63558 -19.62985 -14.84361 -10.64717 -10.60925
 Alpha  occ. eigenvalues --  -10.60923 -10.56293 -10.56292 -10.54423 -10.54421
 Alpha  occ. eigenvalues --  -10.53756 -10.53756  -1.20413  -1.16101  -0.99054
 Alpha  occ. eigenvalues --   -0.93629  -0.85867  -0.82819  -0.81312  -0.79520
 Alpha  occ. eigenvalues --   -0.79303  -0.69512  -0.65500  -0.59912  -0.59358
 Alpha  occ. eigenvalues --   -0.57818  -0.56785  -0.54103  -0.52401  -0.51771
 Alpha  occ. eigenvalues --   -0.51265  -0.49986  -0.48218  -0.47749  -0.46846
 Alpha  occ. eigenvalues --   -0.46319  -0.45747  -0.45489  -0.44684  -0.43760
 Alpha  occ. eigenvalues --   -0.41991  -0.41317  -0.41007  -0.40419  -0.34691
 Alpha  occ. eigenvalues --   -0.33140  -0.27355
 Alpha virt. eigenvalues --   -0.00128   0.04279   0.07517   0.08386   0.08518
 Alpha virt. eigenvalues --    0.10170   0.11081   0.12107   0.12521   0.12672
 Alpha virt. eigenvalues --    0.13042   0.14299   0.14663   0.15773   0.16200
 Alpha virt. eigenvalues --    0.16808   0.17255   0.17744   0.17761   0.18179
 Alpha virt. eigenvalues --    0.18444   0.19789   0.20655   0.21796   0.22657
 Alpha virt. eigenvalues --    0.23539   0.23757   0.24942   0.25379   0.26557
 Alpha virt. eigenvalues --    0.26959   0.28059   0.29055   0.30030   0.32609
 Alpha virt. eigenvalues --    0.32750   0.32826   0.34100   0.35422   0.35476
 Alpha virt. eigenvalues --    0.37164   0.37994   0.38705   0.39500   0.40209
 Alpha virt. eigenvalues --    0.41086   0.41299   0.42399   0.43006   0.43013
 Alpha virt. eigenvalues --    0.43997   0.44467   0.44665   0.46013   0.46732
 Alpha virt. eigenvalues --    0.46769   0.47851   0.48072   0.48629   0.48785
 Alpha virt. eigenvalues --    0.48843   0.49942   0.50031   0.50480   0.50487
 Alpha virt. eigenvalues --    0.51726   0.52503   0.52914   0.53345   0.54388
 Alpha virt. eigenvalues --    0.56299   0.56591   0.57859   0.58094   0.61112
 Alpha virt. eigenvalues --    0.62320   0.62329   0.63166   0.65061   0.67305
 Alpha virt. eigenvalues --    0.67896   0.68372   0.69335   0.71444   0.72728
 Alpha virt. eigenvalues --    0.74099   0.76345   0.78211   0.78382   0.80193
 Alpha virt. eigenvalues --    0.81595   0.83431   0.85035   0.86147   0.86506
 Alpha virt. eigenvalues --    0.88825   0.89480   0.90781   0.90880   0.92001
 Alpha virt. eigenvalues --    0.92017   0.93381   0.94816   0.96727   0.99232
 Alpha virt. eigenvalues --    1.01028   1.02275   1.03393   1.04138   1.05568
 Alpha virt. eigenvalues --    1.05643   1.06836   1.07087   1.07928   1.08476
 Alpha virt. eigenvalues --    1.11887   1.13101   1.15730   1.15767   1.17176
 Alpha virt. eigenvalues --    1.18019   1.19095   1.21029   1.21151   1.24758
 Alpha virt. eigenvalues --    1.25988   1.28624   1.30975   1.32450   1.32525
 Alpha virt. eigenvalues --    1.33264   1.35467   1.36743   1.37092   1.39020
 Alpha virt. eigenvalues --    1.40437   1.44469   1.46953   1.47750   1.49035
 Alpha virt. eigenvalues --    1.51839   1.53664   1.55400   1.56660   1.57087
 Alpha virt. eigenvalues --    1.57648   1.58975   1.59619   1.60431   1.62245
 Alpha virt. eigenvalues --    1.62531   1.63603   1.63883   1.64491   1.64710
 Alpha virt. eigenvalues --    1.65159   1.65440   1.66504   1.66868   1.68416
 Alpha virt. eigenvalues --    1.69636   1.70334   1.70621   1.71212   1.73988
 Alpha virt. eigenvalues --    1.74370   1.75814   1.76958   1.78483   1.79793
 Alpha virt. eigenvalues --    1.80287   1.88073   1.88802   1.91072   1.92599
 Alpha virt. eigenvalues --    1.93507   1.95538   1.95636   1.96158   2.01361
 Alpha virt. eigenvalues --    2.01542   2.02845   2.02884   2.06436   2.07085
 Alpha virt. eigenvalues --    2.08236   2.10270   2.10464   2.12488   2.13110
 Alpha virt. eigenvalues --    2.14367   2.16140   2.17803   2.19159   2.20414
 Alpha virt. eigenvalues --    2.20633   2.21645   2.25101   2.25388   2.26602
 Alpha virt. eigenvalues --    2.26879   2.29178   2.29654   2.29701   2.31946
 Alpha virt. eigenvalues --    2.32671   2.33835   2.34278   2.36310   2.36472
 Alpha virt. eigenvalues --    2.37285   2.37536   2.38175   2.39068   2.40777
 Alpha virt. eigenvalues --    2.41890   2.43198   2.45911   2.47055   2.48993
 Alpha virt. eigenvalues --    2.49140   2.50367   2.51043   2.52310   2.53882
 Alpha virt. eigenvalues --    2.54940   2.56523   2.58041   2.58147   2.59322
 Alpha virt. eigenvalues --    2.60091   2.60319   2.61826   2.62017   2.64996
 Alpha virt. eigenvalues --    2.65921   2.66738   2.67132   2.68585   2.70044
 Alpha virt. eigenvalues --    2.70634   2.72173   2.73008   2.73720   2.74518
 Alpha virt. eigenvalues --    2.75541   2.77182   2.78378   2.80724   2.81062
 Alpha virt. eigenvalues --    2.83867   2.84252   2.84285   2.86356   2.87300
 Alpha virt. eigenvalues --    2.90194   2.90543   2.93223   2.95921   2.97012
 Alpha virt. eigenvalues --    3.00157   3.01099   3.03519   3.04850   3.06095
 Alpha virt. eigenvalues --    3.09430   3.10769   3.11052   3.12370   3.12835
 Alpha virt. eigenvalues --    3.13627   3.13647   3.16402   3.17369   3.20449
 Alpha virt. eigenvalues --    3.21435   3.22194   3.22592   3.24810   3.25498
 Alpha virt. eigenvalues --    3.26294   3.27782   3.28049   3.29389   3.30618
 Alpha virt. eigenvalues --    3.31145   3.31632   3.32723   3.34473   3.34557
 Alpha virt. eigenvalues --    3.36590   3.36716   3.37795   3.38085   3.38435
 Alpha virt. eigenvalues --    3.38573   3.40353   3.42876   3.42955   3.44494
 Alpha virt. eigenvalues --    3.46346   3.47442   3.48036   3.48358   3.51016
 Alpha virt. eigenvalues --    3.51207   3.52940   3.54137   3.56420   3.59874
 Alpha virt. eigenvalues --    3.60686   3.62373   3.62748   3.64790   3.66029
 Alpha virt. eigenvalues --    3.71668   3.72628   3.74167   3.74532   3.76217
 Alpha virt. eigenvalues --    3.76420   3.79333   3.80337   3.84906   3.85451
 Alpha virt. eigenvalues --    3.88833   3.92721   3.93188   3.95242   3.97902
 Alpha virt. eigenvalues --    3.99223   4.02386   4.05915   4.06360   4.06702
 Alpha virt. eigenvalues --    4.07282   4.08810   4.11251   4.12245   4.12450
 Alpha virt. eigenvalues --    4.15611   4.16197   4.18084   4.21932   4.25612
 Alpha virt. eigenvalues --    4.26313   4.27811   4.29647   4.30778   4.32562
 Alpha virt. eigenvalues --    4.35944   4.36935   4.38614   4.41275   4.42863
 Alpha virt. eigenvalues --    4.42967   4.44475   4.45581   4.46330   4.48275
 Alpha virt. eigenvalues --    4.49311   4.54544   4.54793   4.62903   4.67512
 Alpha virt. eigenvalues --    4.68685   4.74367   4.74942   4.76008   4.79019
 Alpha virt. eigenvalues --    4.80545   4.85860   4.89743   4.92586   4.93226
 Alpha virt. eigenvalues --    5.00301   5.01974   5.04007   5.11934   5.14676
 Alpha virt. eigenvalues --    5.21638   5.22528   5.23237   5.26115   5.28109
 Alpha virt. eigenvalues --    5.40570   5.45381   5.50804   5.56492   5.58804
 Alpha virt. eigenvalues --    5.66206   5.74332   5.82397   6.04477   6.10521
 Alpha virt. eigenvalues --    6.25461   6.30751   6.37578   6.39250   6.40383
 Alpha virt. eigenvalues --    6.43197   6.56371   6.80632   6.81020   6.96126
 Alpha virt. eigenvalues --    6.96530   6.99060   7.03336   7.63356  22.48042
 Alpha virt. eigenvalues --   22.51825  22.52251  22.53021  22.62293  22.69642
 Alpha virt. eigenvalues --   22.79993  22.80633  23.14887  32.98247  44.04141
 Alpha virt. eigenvalues --   44.15534
  Beta  occ. eigenvalues --  -19.62985 -19.62456 -14.83548 -10.64718 -10.60966
  Beta  occ. eigenvalues --  -10.60965 -10.56286 -10.56285 -10.54384 -10.54382
  Beta  occ. eigenvalues --  -10.53744 -10.53744  -1.17340  -1.16074  -0.97687
  Beta  occ. eigenvalues --   -0.93469  -0.85008  -0.81432  -0.81178  -0.79397
  Beta  occ. eigenvalues --   -0.79172  -0.69041  -0.65273  -0.59070  -0.58976
  Beta  occ. eigenvalues --   -0.56665  -0.56296  -0.52889  -0.51949  -0.51228
  Beta  occ. eigenvalues --   -0.50022  -0.49543  -0.48111  -0.47289  -0.46757
  Beta  occ. eigenvalues --   -0.46192  -0.45461  -0.44629  -0.43772  -0.43144
  Beta  occ. eigenvalues --   -0.41141  -0.40767  -0.40725  -0.37008  -0.33241
  Beta  occ. eigenvalues --   -0.32775
  Beta virt. eigenvalues --   -0.01965  -0.00097   0.04313   0.07547   0.08469
  Beta virt. eigenvalues --    0.08636   0.10260   0.11123   0.12149   0.12476
  Beta virt. eigenvalues --    0.12719   0.13164   0.14318   0.15003   0.15803
  Beta virt. eigenvalues --    0.16265   0.16779   0.17504   0.17745   0.17943
  Beta virt. eigenvalues --    0.18349   0.18487   0.19846   0.20816   0.21972
  Beta virt. eigenvalues --    0.22803   0.23719   0.23763   0.25101   0.25524
  Beta virt. eigenvalues --    0.26762   0.27541   0.28144   0.29190   0.30085
  Beta virt. eigenvalues --    0.32745   0.33028   0.33233   0.34229   0.35411
  Beta virt. eigenvalues --    0.35581   0.37283   0.38019   0.38708   0.39610
  Beta virt. eigenvalues --    0.40357   0.41244   0.41589   0.42511   0.43096
  Beta virt. eigenvalues --    0.43102   0.44095   0.44496   0.44606   0.46018
  Beta virt. eigenvalues --    0.46827   0.46894   0.47820   0.48234   0.48694
  Beta virt. eigenvalues --    0.48821   0.48826   0.49986   0.50099   0.50512
  Beta virt. eigenvalues --    0.50577   0.51785   0.52705   0.53185   0.53392
  Beta virt. eigenvalues --    0.54550   0.56357   0.56626   0.58080   0.58213
  Beta virt. eigenvalues --    0.61144   0.62639   0.62690   0.63356   0.65342
  Beta virt. eigenvalues --    0.67643   0.67994   0.68372   0.69467   0.71821
  Beta virt. eigenvalues --    0.72806   0.74142   0.76454   0.78276   0.78518
  Beta virt. eigenvalues --    0.80398   0.81692   0.83498   0.85130   0.86268
  Beta virt. eigenvalues --    0.86642   0.88935   0.89508   0.90929   0.90948
  Beta virt. eigenvalues --    0.92147   0.92155   0.93482   0.94868   0.96786
  Beta virt. eigenvalues --    0.99407   1.01062   1.02502   1.03624   1.04285
  Beta virt. eigenvalues --    1.05664   1.05761   1.07045   1.07130   1.08164
  Beta virt. eigenvalues --    1.08449   1.11970   1.13229   1.15739   1.15876
  Beta virt. eigenvalues --    1.17268   1.18117   1.19213   1.21103   1.21351
  Beta virt. eigenvalues --    1.24882   1.26206   1.28947   1.30945   1.32542
  Beta virt. eigenvalues --    1.32673   1.33346   1.35497   1.36866   1.37208
  Beta virt. eigenvalues --    1.39069   1.40724   1.44661   1.47502   1.47826
  Beta virt. eigenvalues --    1.49069   1.52234   1.53864   1.55543   1.56793
  Beta virt. eigenvalues --    1.57123   1.57811   1.59060   1.59884   1.60622
  Beta virt. eigenvalues --    1.62285   1.62631   1.63782   1.63967   1.64626
  Beta virt. eigenvalues --    1.64760   1.65197   1.65584   1.66560   1.66939
  Beta virt. eigenvalues --    1.68728   1.69679   1.70401   1.70671   1.71278
  Beta virt. eigenvalues --    1.74294   1.74478   1.76043   1.76806   1.79039
  Beta virt. eigenvalues --    1.79916   1.80511   1.88319   1.89349   1.91134
  Beta virt. eigenvalues --    1.92787   1.93683   1.95723   1.95772   1.96328
  Beta virt. eigenvalues --    2.01492   2.01651   2.02935   2.03199   2.06429
  Beta virt. eigenvalues --    2.07219   2.08285   2.10479   2.10554   2.12830
  Beta virt. eigenvalues --    2.13115   2.14454   2.16345   2.18036   2.19416
  Beta virt. eigenvalues --    2.20498   2.20850   2.22026   2.25177   2.25504
  Beta virt. eigenvalues --    2.26616   2.27134   2.29206   2.29801   2.29850
  Beta virt. eigenvalues --    2.32018   2.32854   2.33868   2.34339   2.36425
  Beta virt. eigenvalues --    2.36496   2.37360   2.37617   2.38350   2.39304
  Beta virt. eigenvalues --    2.40833   2.42051   2.43264   2.46162   2.47103
  Beta virt. eigenvalues --    2.49113   2.49175   2.50495   2.51146   2.52590
  Beta virt. eigenvalues --    2.53926   2.55052   2.56782   2.58164   2.58250
  Beta virt. eigenvalues --    2.59391   2.60143   2.60374   2.61911   2.62076
  Beta virt. eigenvalues --    2.65718   2.66397   2.66840   2.67318   2.68827
  Beta virt. eigenvalues --    2.70096   2.70738   2.72419   2.73037   2.73853
  Beta virt. eigenvalues --    2.74694   2.76673   2.77249   2.78482   2.81100
  Beta virt. eigenvalues --    2.81118   2.84029   2.84324   2.84400   2.87550
  Beta virt. eigenvalues --    2.87784   2.90420   2.92294   2.93240   2.96042
  Beta virt. eigenvalues --    2.97411   3.00466   3.01117   3.03567   3.04962
  Beta virt. eigenvalues --    3.06151   3.09560   3.10851   3.11106   3.12437
  Beta virt. eigenvalues --    3.12907   3.13700   3.13718   3.16840   3.17461
  Beta virt. eigenvalues --    3.20512   3.21529   3.22378   3.22797   3.24930
  Beta virt. eigenvalues --    3.25576   3.26403   3.27853   3.28145   3.29539
  Beta virt. eigenvalues --    3.30696   3.31292   3.31676   3.32763   3.34580
  Beta virt. eigenvalues --    3.34611   3.36708   3.36775   3.37963   3.38149
  Beta virt. eigenvalues --    3.38435   3.38631   3.40484   3.42901   3.42933
  Beta virt. eigenvalues --    3.44557   3.46413   3.47515   3.48108   3.48421
  Beta virt. eigenvalues --    3.51064   3.51205   3.52893   3.54125   3.56505
  Beta virt. eigenvalues --    3.59867   3.60684   3.62462   3.62879   3.64898
  Beta virt. eigenvalues --    3.66151   3.71763   3.72658   3.74178   3.74507
  Beta virt. eigenvalues --    3.76192   3.76542   3.79411   3.80423   3.84969
  Beta virt. eigenvalues --    3.85608   3.88813   3.92789   3.93288   3.95605
  Beta virt. eigenvalues --    3.97948   3.99478   4.02448   4.06111   4.06410
  Beta virt. eigenvalues --    4.06663   4.07444   4.08792   4.11346   4.12235
  Beta virt. eigenvalues --    4.12614   4.15652   4.16190   4.18156   4.22087
  Beta virt. eigenvalues --    4.25916   4.26401   4.27825   4.29813   4.30820
  Beta virt. eigenvalues --    4.32639   4.36368   4.37260   4.38612   4.41548
  Beta virt. eigenvalues --    4.42891   4.43027   4.44499   4.45740   4.46378
  Beta virt. eigenvalues --    4.48276   4.49475   4.54540   4.54924   4.63021
  Beta virt. eigenvalues --    4.67551   4.68647   4.75824   4.76074   4.76335
  Beta virt. eigenvalues --    4.79261   4.81413   4.85658   4.90514   4.92810
  Beta virt. eigenvalues --    4.93257   5.00615   5.01903   5.03815   5.13785
  Beta virt. eigenvalues --    5.17373   5.22625   5.23064   5.24152   5.27900
  Beta virt. eigenvalues --    5.29981   5.40940   5.46331   5.52552   5.56547
  Beta virt. eigenvalues --    5.58070   5.66219   5.74402   5.83464   6.04479
  Beta virt. eigenvalues --    6.12967   6.25476   6.30522   6.39050   6.43206
  Beta virt. eigenvalues --    6.44178   6.46772   6.56398   6.80929   6.84852
  Beta virt. eigenvalues --    6.96322   6.98950   6.99082   7.03339   7.63235
  Beta virt. eigenvalues --   22.48063  22.51844  22.52264  22.53044  22.62294
  Beta virt. eigenvalues --   22.69637  22.79922  22.80550  23.14889  32.98365
  Beta virt. eigenvalues --   44.04141  44.15615
          Condensed to atoms (all electrons):
               1          2          3          4          5          6
     1  O    8.283793   0.150284  -0.027852   0.003822   0.001311   0.003841
     2  N    0.150284   6.645551   0.173526  -0.032734  -0.018235  -0.032827
     3  C   -0.027852   0.173526   5.551605  -0.040255   0.025375   0.123962
     4  C    0.003822  -0.032734  -0.040255   5.973897   0.170895  -0.367537
     5  C    0.001311  -0.018235   0.025375   0.170895   4.805468   0.171173
     6  C    0.003841  -0.032827   0.123962  -0.367537   0.171173   5.973347
     7  C   -0.027837   0.173601  -0.118016   0.123922   0.025261  -0.040002
     8  C   -0.014458  -0.053227   0.332980  -0.090240  -0.004674   0.012235
     9  C   -0.003377  -0.058801   0.208475  -0.068351   0.007023  -0.006406
    10  C   -0.003421  -0.058773   0.013775  -0.006379   0.007011  -0.068358
    11  C   -0.014473  -0.053212  -0.018668   0.012220  -0.004666  -0.090240
    12  O    0.000007   0.000313   0.009717  -0.118362   0.678917  -0.118348
    13  H   -0.000299   0.004766  -0.015012   0.379450  -0.023984   0.015638
    14  H    0.000078  -0.002306  -0.039629   0.397029  -0.033559   0.018673
    15  H    0.000076  -0.002282  -0.008565   0.018712  -0.033661   0.397205
    16  H   -0.000299   0.004761  -0.003513   0.015648  -0.023982   0.379422
    17  H   -0.000127   0.009480  -0.035958  -0.008501  -0.000614  -0.001166
    18  H    0.000060  -0.007466  -0.012070  -0.009396   0.000454   0.002177
    19  H    0.008633  -0.005987  -0.033909   0.012668  -0.000311  -0.000366
    20  H    0.001573   0.009222  -0.038711  -0.010300  -0.000060  -0.000392
    21  H    0.006835  -0.008834  -0.023214   0.012761  -0.000333   0.000183
    22  H   -0.001771  -0.003022  -0.011632  -0.016441  -0.000648   0.000123
    23  H   -0.001777  -0.003018  -0.001180   0.000124  -0.000649  -0.016431
    24  H    0.001571   0.009221   0.000691  -0.000392  -0.000061  -0.010305
    25  H    0.006851  -0.008839  -0.001005   0.000182  -0.000333   0.012763
    26  H   -0.000126   0.009481   0.000783  -0.001163  -0.000624  -0.008493
    27  H    0.000059  -0.007466  -0.001166   0.002146   0.000485  -0.009425
    28  H    0.008648  -0.006008  -0.000512  -0.000371  -0.000307   0.012662
               7          8          9         10         11         12
     1  O   -0.027837  -0.014458  -0.003377  -0.003421  -0.014473   0.000007
     2  N    0.173601  -0.053227  -0.058801  -0.058773  -0.053212   0.000313
     3  C   -0.118016   0.332980   0.208475   0.013775  -0.018668   0.009717
     4  C    0.123922  -0.090240  -0.068351  -0.006379   0.012220  -0.118362
     5  C    0.025261  -0.004674   0.007023   0.007011  -0.004666   0.678917
     6  C   -0.040002   0.012235  -0.006406  -0.068358  -0.090240  -0.118348
     7  C    5.551546  -0.018636   0.013794   0.208384   0.333002   0.009695
     8  C   -0.018636   5.156450  -0.107651   0.000568  -0.000952   0.001338
     9  C    0.013794  -0.107651   5.252563  -0.004778   0.000581  -0.000989
    10  C    0.208384   0.000568  -0.004778   5.252828  -0.107737  -0.000989
    11  C    0.333002  -0.000952   0.000581  -0.107737   5.156495   0.001345
    12  O    0.009695   0.001338  -0.000989  -0.000989   0.001345   7.827340
    13  H   -0.003508  -0.000770  -0.011029   0.000321  -0.000088   0.007617
    14  H   -0.008515   0.008486  -0.007226   0.000232  -0.003950   0.002990
    15  H   -0.039723  -0.003968   0.000232  -0.007231   0.008489   0.002992
    16  H   -0.014994  -0.000086   0.000321  -0.011023  -0.000775   0.007631
    17  H    0.000784   0.415823  -0.009762  -0.000022   0.000037  -0.000077
    18  H   -0.001181   0.383216   0.013763  -0.000561   0.000112  -0.000078
    19  H   -0.000523   0.416414  -0.017585   0.000797  -0.000063   0.000003
    20  H    0.000691  -0.014809   0.416197   0.000027   0.000039  -0.000023
    21  H   -0.001008  -0.007031   0.404581   0.000232   0.000102   0.000010
    22  H   -0.001175   0.012705   0.391771   0.000018  -0.000475   0.000000
    23  H   -0.011597  -0.000477   0.000019   0.391691   0.012711   0.000000
    24  H   -0.038704   0.000038   0.000027   0.416212  -0.014804  -0.000023
    25  H   -0.023222   0.000103   0.000231   0.404583  -0.007037   0.000010
    26  H   -0.036001   0.000037  -0.000022  -0.009753   0.415854  -0.000077
    27  H   -0.012011   0.000112  -0.000561   0.013764   0.383175  -0.000079
    28  H   -0.033871  -0.000063   0.000792  -0.017590   0.416400   0.000003
              13         14         15         16         17         18
     1  O   -0.000299   0.000078   0.000076  -0.000299  -0.000127   0.000060
     2  N    0.004766  -0.002306  -0.002282   0.004761   0.009480  -0.007466
     3  C   -0.015012  -0.039629  -0.008565  -0.003513  -0.035958  -0.012070
     4  C    0.379450   0.397029   0.018712   0.015648  -0.008501  -0.009396
     5  C   -0.023984  -0.033559  -0.033661  -0.023982  -0.000614   0.000454
     6  C    0.015638   0.018673   0.397205   0.379422  -0.001166   0.002177
     7  C   -0.003508  -0.008515  -0.039723  -0.014994   0.000784  -0.001181
     8  C   -0.000770   0.008486  -0.003968  -0.000086   0.415823   0.383216
     9  C   -0.011029  -0.007226   0.000232   0.000321  -0.009762   0.013763
    10  C    0.000321   0.000232  -0.007231  -0.011023  -0.000022  -0.000561
    11  C   -0.000088  -0.003950   0.008489  -0.000775   0.000037   0.000112
    12  O    0.007617   0.002990   0.002992   0.007631  -0.000077  -0.000078
    13  H    0.460989  -0.001802  -0.000997  -0.000378   0.001022  -0.000217
    14  H   -0.001802   0.473999  -0.000103  -0.000995  -0.000138  -0.000358
    15  H   -0.000997  -0.000103   0.473995  -0.001794   0.000400  -0.001423
    16  H   -0.000378  -0.000995  -0.001794   0.460970   0.000000   0.000515
    17  H    0.001022  -0.000138   0.000400   0.000000   0.520807  -0.025135
    18  H   -0.000217  -0.000358  -0.001423   0.000515  -0.025135   0.536801
    19  H   -0.000166  -0.000253  -0.000104   0.000004  -0.021274  -0.021360
    20  H    0.002384  -0.001570   0.000004   0.000001   0.001348  -0.000073
    21  H   -0.000073   0.000132  -0.000012  -0.000002  -0.000264  -0.000080
    22  H    0.000392   0.003831  -0.000015  -0.000009  -0.000173  -0.000383
    23  H   -0.000009  -0.000015   0.003831   0.000391   0.000033  -0.000092
    24  H    0.000001   0.000004  -0.001566   0.002382   0.000002   0.000043
    25  H   -0.000002  -0.000012   0.000131  -0.000073   0.000001  -0.000007
    26  H    0.000000   0.000398  -0.000137   0.001024  -0.000002  -0.000004
    27  H    0.000514  -0.001413  -0.000357  -0.000218  -0.000004   0.000008
    28  H    0.000004  -0.000104  -0.000253  -0.000166   0.000002  -0.000001
              19         20         21         22         23         24
     1  O    0.008633   0.001573   0.006835  -0.001771  -0.001777   0.001571
     2  N   -0.005987   0.009222  -0.008834  -0.003022  -0.003018   0.009221
     3  C   -0.033909  -0.038711  -0.023214  -0.011632  -0.001180   0.000691
     4  C    0.012668  -0.010300   0.012761  -0.016441   0.000124  -0.000392
     5  C   -0.000311  -0.000060  -0.000333  -0.000648  -0.000649  -0.000061
     6  C   -0.000366  -0.000392   0.000183   0.000123  -0.016431  -0.010305
     7  C   -0.000523   0.000691  -0.001008  -0.001175  -0.011597  -0.038704
     8  C    0.416414  -0.014809  -0.007031   0.012705  -0.000477   0.000038
     9  C   -0.017585   0.416197   0.404581   0.391771   0.000019   0.000027
    10  C    0.000797   0.000027   0.000232   0.000018   0.391691   0.416212
[...]
 8520,0.00001501,-0.00013590,-0.00001101,0.00001385,0.00003629,-0.00001
 031,-0.00009903,0.00025151,-0.00011413,-0.00267049,0.00219475,-0.00217
 972,-0.08606063,-0.01228415,0.09685269,0.00006217,-0.00004178,-0.00000
 692,0.00008660,-0.00004912,-0.00005862,0.00003248,-0.00011197,-0.00001
 923,-0.00000493,0.00007755,0.00008440,0.00018722,0.00000037,0.00027650
 ,0.00003908,-0.00001235,0.00001572,-0.00000852,-0.00001747,0.00000809,
 0.00025146,0.00024315,-0.00008386,0.00070480,0.00017157,-0.00127074,-0
 .00012682,0.00001020,0.00006897,-0.00902681,-0.00159909,0.02533915,-0.
 00266866,-0.00122624,0.00400206,0.09061065,0.00017300,0.00016705,0.000
 71229,-0.00080119,0.00038141,-0.00132464,-0.00728388,-0.00389532,0.015
 44897,-0.00117236,0.00096808,0.00092407,0.00047117,-0.00003992,-0.0001
 5357,-0.00009490,0.00002130,0.00004415,-0.00005682,-0.00000664,-0.0001
 3982,0.00221185,-0.00168977,0.00144083,-0.01095868,-0.05072518,0.02824
 356,-0.00001272,-0.00000789,-0.00000887,0.00010411,0.00010671,0.000088
 24,-0.00017592,0.00018777,-0.00001704,0.00006770,-0.00006216,0.0001022
 6,0.00041039,-0.00060164,-0.00028819,-0.00004136,0.00001155,-0.0000064
 5,-0.00001886,-0.00002282,-0.00001605,0.00026152,-0.00004447,-0.000217
 20,-0.00012297,0.00048980,0.00108573,0.00008129,0.00016626,0.00031976,
 -0.00473358,-0.00248517,0.01486188,0.01116687,0.00526484,-0.02664350,0
 .01057112,0.05195413,-0.00017199,-0.00119523,0.00067711,0.00114057,0.0
 0101526,0.00129906,0.00742685,0.00150467,-0.01852250,0.00050030,-0.001
 26281,0.00068407,-0.00042000,0.00011123,0.00026023,0.00005004,0.000019
 88,-0.00012495,-0.00015534,0.00003473,-0.00023562,-0.00366202,0.002707
 57,-0.00130057,0.09363825,0.02933438,-0.27536881,0.00000890,-0.0000253
 4,-0.00001025,-0.00000684,-0.00002106,-0.00005551,0.00009249,-0.000148
 00,-0.00005515,-0.00006919,-0.00008585,0.00004538,-0.00007118,0.000497
 64,0.00065925,0.00004841,-0.00002237,0.00005863,-0.00000645,-0.0000035
 1,0.00003368,0.00001183,-0.00010907,0.00035812,0.00041707,0.00015723,-
 0.00119150,0.00002339,0.00001277,0.00033814,-0.00150124,-0.00054668,0.
 00398478,0.00453902,0.00235460,-0.01080741,-0.10169583,-0.03436682,0.2
 9920708,0.00002307,0.00035829,-0.00016421,0.00206130,-0.00034959,0.000
 24390,-0.00009869,-0.00025170,-0.00011430,0.00001370,-0.00003634,-0.00
 001021,0.00001563,0.00013609,-0.00001150,0.00048580,0.00101647,-0.0005
 8366,0.00606087,-0.00295162,-0.02080050,0.00008668,0.00004898,-0.00005
 847,0.00006207,0.00004191,-0.00000694,-0.08610954,0.01224321,0.0969075
 1,-0.00266266,-0.00219694,-0.00217690,0.00003197,0.00011179,-0.0000191
 5,-0.00000858,0.00001749,0.00000805,0.00003897,0.00001239,0.00001571,0
 .00018804,0.00000104,0.00027594,-0.00000470,-0.00007744,0.00008468,0.0
 0001764,0.00001502,0.00005079,0.00004854,-0.00007791,0.00004147,-0.000
 05063,0.00007914,0.00002669,0.00002689,0.00000111,0.00001158,-0.000020
 24,0.00001056,-0.00000360,-0.00000184,-0.00000759,0.00000991,0.0906559
 6,-0.00017312,0.00016728,-0.00071257,0.00080442,0.00038257,0.00132539,
 0.00005659,-0.00000691,0.00013954,0.00009485,0.00002141,-0.00004417,-0
 .00047112,-0.00004050,0.00015333,0.00117181,0.00097190,-0.00092465,0.0
 0730382,-0.00389106,-0.01548913,-0.00010414,0.00010664,-0.00008836,0.0
 0001283,-0.00000779,0.00000886,0.01091670,-0.05069480,-0.02811598,-0.0
 0221481,-0.00169854,-0.00144476,0.00017567,0.00018849,0.00001709,0.000
 01888,-0.00002274,0.00001608,0.00004141,0.00001163,0.00000649,-0.00040
 916,-0.00060217,0.00028879,-0.00006752,-0.00006249,-0.00010204,0.00000
 891,-0.00003672,0.00005026,-0.00000398,-0.00008264,0.00003579,0.000025
 67,-0.00000127,-0.00000639,-0.00000390,-0.00000669,-0.00000403,0.00001
 173,-0.00000502,0.00000561,0.00000760,-0.00000546,0.00000862,-0.010525
 41,0.05192883,-0.00017460,0.00119508,0.00067630,0.00114219,-0.00101268
 ,0.00129986,-0.00015530,-0.00003503,-0.00023578,0.00004999,-0.00001985
 ,-0.00012491,-0.00041977,-0.00011189,0.00026009,0.00049812,0.00126333,
 0.00068422,0.00742918,-0.00149486,-0.01852020,-0.00000687,0.00002101,-
 0.00005558,0.00000881,0.00002532,-0.00001023,0.09369637,-0.02921258,-0
 .27534624,-0.00365715,-0.00271383,-0.00129970,0.00009227,0.00014835,-0
 .00005507,-0.00000646,0.00000350,0.00003367,0.00004834,0.00002246,0.00
 005862,-0.00007039,-0.00049775,0.00065927,-0.00006940,0.00008564,0.000
 04529,0.00004707,0.00001579,0.00003431,-0.00008942,-0.00008014,0.00000
 617,-0.00010389,0.00001826,0.00000463,0.00001744,0.00000501,0.00000275
 ,-0.00001817,0.00001266,-0.00000536,0.00000993,-0.00000860,0.00002433,
 -0.10176345,0.03423576,0.29918188,0.00028894,-0.00090283,0.00032178,-0
 .00306445,-0.00241103,-0.00257376,0.00027977,0.00126755,-0.00055494,0.
 00015785,0.00019143,0.00023666,-0.00025015,-0.00035877,-0.00035230,0.0
 0083651,0.00135601,0.00048052,-0.01849362,0.01129592,0.00043700,-0.000
 10621,-0.00004185,-0.00007833,-0.00039996,-0.00034701,0.00006422,-0.24
 814889,0.11600160,-0.01400956,0.00015808,0.00044146,0.00103083,0.00019
 101,0.00008634,0.00010213,0.00005550,-0.00008839,-0.00000257,0.0000208
 8,-0.00000994,-0.00000693,-0.00025504,-0.00005954,0.00006835,0.0001425
 4,-0.00080171,-0.00008426,-0.00004664,-0.00002345,0.00005016,0.0000175
 8,0.00000244,0.00004417,0.00005148,-0.00001665,-0.00002216,-0.00014820
 ,0.00005773,-0.00007516,0.00005921,-0.00000950,0.00001073,0.00002688,0
 .00000396,0.00001746,-0.00903936,0.00472267,-0.00150347,0.27044407,0.0
 0192100,0.00066579,0.00083167,-0.00356216,-0.00347725,-0.00188716,-0.0
 0040310,0.00063381,-0.00043498,0.00000358,0.00014980,0.00006187,-0.000
 21733,0.00010840,-0.00011348,-0.00052834,0.00060405,-0.00005051,-0.015
 48204,0.00711759,-0.00115099,0.00001549,0.00001362,-0.00003138,-0.0002
 1500,-0.00011697,0.00000477,0.11850696,-0.11456074,0.00828309,0.000036
 80,0.00014309,0.00040564,0.00016048,0.00016735,0.00008659,0.00002228,-
 0.00000514,0.00000473,0.00000691,-0.00001007,0.00000278,0.00012031,0.0
 0007131,0.00022617,-0.00023406,-0.00029318,-0.00027019,0.00000859,0.00
 000498,0.00001791,0.00000341,-0.00001652,0.00002646,-0.00001755,0.0000
 0104,0.00001271,-0.00005812,0.00006773,-0.00003945,-0.00000671,0.00001
 231,0.00000598,-0.00000106,-0.00000669,-0.00000498,0.00159278,-0.00247
 675,0.00054551,-0.12695000,0.12280362,-0.00058015,-0.00014637,0.000448
 08,-0.00289679,-0.00189173,-0.00075194,-0.00008841,0.00077225,-0.00036
 554,-0.00001085,0.00006200,0.00015294,-0.00004088,0.00002457,-0.000268
 85,0.00031431,0.00072565,0.00035490,-0.01428790,0.01005199,-0.00207019
 ,-0.00004554,-0.00002237,-0.00010404,-0.00025580,-0.00018718,0.0000537
 7,-0.01237147,0.00706943,-0.04884554,-0.00028721,0.00061743,0.00042255
 ,0.00005112,0.00002809,0.00003454,0.00000432,-0.00002755,-0.00002580,-
 0.00000026,0.00000231,-0.00000887,0.00015887,-0.00018256,-0.00007525,0
 .00010801,-0.00022051,0.00027440,-0.00000385,0.00000608,0.00006190,-0.
 00000100,-0.00005321,0.00002151,-0.00004349,0.00002719,-0.00001478,-0.
 00007526,0.00003930,-0.00006470,0.00001982,-0.00000328,-0.00000196,0.0
 0001158,0.00000406,0.00000277,0.02536494,-0.01481547,0.00398853,0.0165
 3785,-0.00641221,0.04886375,-0.00138868,0.00125844,-0.00044396,0.00095
 532,-0.00087847,0.00029000,-0.00034626,-0.00008751,0.00008121,0.000175
 67,0.00009555,-0.00007336,0.00144956,-0.00083488,0.00083815,-0.0033477
 6,-0.00122627,-0.00258813,-0.00400121,-0.01955206,0.00930491,0.0001479
 5,0.00003704,0.00011395,0.00005724,0.00014135,-0.00000571,-0.05191716,
 -0.03882759,0.01748150,0.00043006,0.00051592,0.00117822,-0.00070437,-0
 .00069504,-0.00040284,-0.00003525,0.00008029,0.00002099,-0.00001713,-0
 .00000094,0.00000144,-0.00009708,0.00024629,-0.00029779,0.00013661,-0.
 00027984,-0.00009031,0.00002493,0.00002302,-0.00006862,0.00000945,0.00
 003889,-0.00004736,-0.00003528,-0.00000137,0.00003750,0.00005920,0.000
 00680,0.00001981,-0.00006334,0.00002345,-0.00000733,-0.00002021,-0.000
 01176,-0.00001815,-0.00265148,-0.01118128,0.00454597,0.00608391,0.0253
 2704,-0.01180020,0.05498160,0.00331990,0.00078958,0.00052221,0.0004929
 7,-0.00149410,-0.00010337,-0.00006851,-0.00009619,-0.00005841,-0.00004
 699,-0.00001954,-0.00007902,0.00105724,0.00005189,0.00113315,-0.003164
 01,-0.00084879,-0.00259363,-0.00290732,-0.01580739,0.00668714,0.000021
 78,0.00000653,0.00002171,0.00002985,0.00004476,0.00004034,-0.04225561,
 -0.27366799,0.10111624,0.00041216,0.00069431,0.00112523,-0.00049710,-0
 .00085363,-0.00038892,-0.00002567,0.00002403,-0.00001820,-0.00005190,0
 .00002634,-0.00003595,0.00010045,0.00020328,-0.00004933,0.00006665,0.0
 0021288,0.00002004,0.00000353,0.00000716,-0.00000691,-0.00000333,-0.00
 000485,-0.00003765,-0.00002394,0.00001401,0.00001205,0.00000960,0.0000
 1234,0.00000331,-0.00002364,0.00003543,-0.00000418,-0.00001059,-0.0000
 0506,-0.00001269,0.00121316,0.00525261,-0.00234991,-0.00290380,-0.0118
 1016,0.00509231,0.04524959,0.29671193,-0.00137692,0.00020925,-0.001058
 96,0.00060773,0.00058434,0.00052063,-0.00005079,-0.00015051,0.00014741
 ,0.00012059,0.00006773,-0.00014361,0.00024222,-0.00069702,0.00132844,-
 0.00301843,-0.00139925,-0.00179926,-0.00203105,-0.01825786,0.00663220,
 -0.00002829,0.00003378,-0.00003050,0.00001568,0.00004195,0.00004318,0.
 01969803,0.10331655,-0.09402577,0.00001166,-0.00073559,0.00144608,-0.0
 0029303,-0.00049809,-0.00044753,0.00000565,0.00000613,-0.00001029,-0.0
 0005927,0.00001933,-0.00002291,-0.00018976,-0.00008907,0.00023831,-0.0
 0002870,0.00006984,-0.00011708,0.00001155,-0.00000444,0.00002936,-0.00
 001865,-0.00005566,-0.00001195,-0.00001572,0.00002378,-0.00000553,0.00
 001076,-0.00000597,-0.00000195,-0.00000735,0.00000417,-0.00000496,-0.0
 0000359,-0.00000562,-0.00000535,0.00395505,0.02664668,-0.01081186,0.00
 005650,-0.00015119,-0.00142719,-0.01760372,-0.10922424,0.09980220,0.00
 014218,0.00043289,-0.00014540,-0.00063984,-0.00053456,0.00286132,0.000
 56101,0.00046471,0.00001340,-0.00003559,-0.00013037,-0.00010668,-0.000
 69870,0.00034652,-0.00038861,0.00016146,0.00039918,-0.00048905,-0.0106
 2831,0.00402558,-0.00136957,-0.00016716,-0.00002750,-0.00006917,-0.000
 03185,-0.00004674,-0.00001932,0.00018070,-0.00012253,-0.00138879,-0.28
 076194,0.09199670,0.00076962,0.00029942,-0.00026389,0.00002523,-0.0000
 0638,-0.00004013,0.00013087,0.00008369,-0.00000860,0.00026101,0.000303
 80,-0.00015346,-0.00001467,0.00020692,-0.00058132,0.00033976,-0.000055
 07,-0.00003996,0.00005670,0.00001696,-0.00002434,0.00003257,0.00002959
 ,0.00000313,-0.00001455,-0.00004667,-0.00000867,-0.00000384,0.00002499
 ,-0.00000349,0.00001154,0.00001769,-0.00000880,0.00004709,0.00025230,-
 0.00026098,0.00001179,0.00073503,-0.00006048,-0.00001728,-0.00006098,-
 0.00002337,0.00024172,0.30392340,0.00004864,0.00106104,0.00003613,0.00
 081393,-0.00009892,-0.00086521,-0.00012832,-0.00030112,-0.00037573,-0.
 00019033,-0.00012520,-0.00029785,-0.00024406,0.00021106,-0.00013151,-0
 .00049905,0.00014276,-0.00008681,0.00022021,-0.00203771,0.00121308,0.0
 0016147,0.00010800,0.00002614,0.00001775,0.00003633,0.00001907,0.00017
 998,0.00010785,0.00002456,0.09160754,-0.08306801,-0.00047799,0.0001222
 3,-0.00009658,-0.00001906,-0.00001178,0.00001531,0.00017464,-0.0000359
 9,-0.00003489,0.00028452,0.00009229,0.00002013,-0.00011105,-0.00005171
 ,0.00000778,0.00032911,0.00003986,0.00000469,-0.00005431,-0.00000408,0
 .00000124,0.00000735,-0.00001241,0.00000280,0.00003535,0.00002337,0.00
 000500,-0.00000606,-0.00002300,0.00000712,0.00000446,-0.00001489,-0.00
 003676,-0.00001569,-0.00024266,-0.00004520,0.00010912,-0.00010511,0.00
 018471,-0.00045071,0.00018430,-0.00020661,0.00006426,-0.10123970,0.085
 49373,0.00014529,-0.00109440,0.00021366,0.00432802,0.00025324,-0.00486
 819,-0.00037613,-0.00094846,-0.00030733,-0.00013083,-0.00019913,-0.000
 27198,0.00010224,0.00030374,0.00002787,-0.00014572,-0.00068091,0.00097
 231,0.02735260,-0.01102966,-0.00000316,0.00019818,0.00012807,0.0000512
 8,0.00009632,0.00015117,-0.00016899,0.00051109,0.00004145,0.00119139,-
 0.00140160,0.00059028,-0.04687517,-0.00004179,-0.00011324,-0.00004234,
 -0.00005679,0.00008938,0.00013958,0.00007982,0.00006604,0.00021324,-0.
 00033490,-0.00007276,0.00015172,-0.00013466,0.00058833,-0.00015304,0.0
 0005658,0.00005438,-0.00010790,-0.00000687,0.00002590,-0.00003668,-0.0
 0002923,0.00000939,0.00005820,0.00005020,-0.00001781,0.00006189,-0.000
 06862,0.00000679,0.00002936,0.00005089,-0.00005016,0.00003428,-0.00008
 417,0.00021724,0.00035800,-0.00033344,-0.00010343,-0.00077144,-0.00011
 576,-0.00014499,0.00002078,-0.00112369,0.00082108,0.05073557,-0.000122
 83,0.00020725,0.00002665,0.00168057,-0.00016099,-0.00098374,-0.0000305
 4,-0.00004898,0.00003937,-0.00129343,-0.00046463,0.00000005,0.00061215
 ,-0.00045869,-0.00020755,0.00037457,0.00023713,-0.00052439,0.00619025,
 0.00834890,0.00738582,-0.00001016,-0.00005055,0.00002269,-0.00000305,-
 0.00003117,0.00004231,-0.00031093,0.00004014,0.00175924,-0.13742419,-0
 .09198507,-0.08888204,-0.00024476,0.00036688,0.00007684,-0.00005018,0.
 00002634,0.00017243,-0.00201006,-0.00076804,0.00088358,-0.00000646,0.0
 0017933,-0.00005109,-0.00011467,-0.00008100,-0.00015673,0.00001689,0.0
 0000411,-0.00000682,-0.00001072,0.00000587,-0.00001142,0.00000460,0.00
 000377,-0.00001609,0.00001757,-0.00000334,-0.00000110,0.00000951,0.000
 00334,-0.00001874,0.00004852,0.00000418,-0.00008955,0.00070500,0.00012
 358,0.00041747,0.00034955,-0.00008196,0.00032255,-0.00016222,0.0000523
 8,0.00007949,-0.01581299,-0.01846295,-0.01644192,0.14808317,0.00050780
 ,-0.00027983,-0.00029724,-0.00016459,-0.00001395,0.00038169,0.00007140
 ,-0.00008717,-0.00033117,-0.00070824,-0.00035875,-0.00030432,-0.000636
 88,0.00059341,-0.00019851,0.00052599,0.00054704,0.00029903,0.00030353,
 -0.00151410,0.00067971,0.00006740,0.00005876,0.00001726,0.00005990,0.0
 0005992,-0.00019505,0.00045034,0.00049855,0.00004577,-0.09172748,-0.14
 038682,-0.08958819,0.00028713,-0.00015397,-0.00000165,-0.00004658,-0.0
 0000271,0.00032397,-0.00068357,0.00018189,0.00068211,0.00011166,-0.000
 02365,-0.00010943,0.00020865,0.00002721,-0.00013548,0.00002435,0.00000
 127,-0.00002590,-0.00000585,-0.00002008,0.00003540,-0.00001397,0.00000
 873,0.00002273,-0.00000239,-0.00001651,0.00005320,-0.00003885,-0.00000
 489,0.00005562,0.00007816,-0.00008250,0.00007991,-0.00017155,0.0004893
 7,-0.00015697,-0.00029191,0.00001191,-0.00007280,0.00019806,0.00043073
 ,0.00018191,0.00691050,0.00743681,0.00796245,0.10220257,0.14774706,0.0
 0037190,0.00019155,0.00014295,-0.00104558,0.00089862,0.00167559,0.0002
 0605,-0.00069602,-0.00045341,-0.00004055,-0.00020375,-0.00044346,-0.00
 000682,0.00086821,-0.00139810,-0.00039811,-0.00082851,0.00192788,-0.01
 977986,-0.01774815,-0.01713934,0.00008509,0.00018709,0.00004527,0.0001
 0678,0.00013926,0.00003697,0.00383937,0.00031031,-0.00559445,-0.086934
 85,-0.08862230,-0.13324655,0.00025740,0.00016653,0.00024273,-0.0000979
 4,0.00004451,0.00036257,0.00034027,-0.00001732,0.00090651,0.00004648,-
 0.00013015,0.00023074,-0.00009464,0.00015354,-0.00016696,0.00003256,-0
 .00000730,-0.00003666,-0.00001136,-0.00003542,-0.00001983,-0.00004337,
 0.00003423,0.00005723,0.00004422,-0.00002637,0.00002149,-0.00004739,0.
 00003757,-0.00001197,0.00004150,-0.00003571,0.00000608,-0.00126873,-0.
 00108845,-0.00119131,0.00006104,0.00020246,0.00018432,0.00008812,0.000
 04765,0.00015211,0.00059115,0.00104312,-0.00003933,0.09531601,0.098271
 18,0.14605491,0.00007977,0.00053957,-0.00027540,0.00052381,-0.00177579
 ,-0.00058079,-0.00019699,-0.00029927,0.00012747,-0.00007182,-0.0000219
 2,-0.00007021,0.00048559,0.00035131,-0.00015654,-0.00068067,0.00079025
 ,0.00245905,-0.00223908,-0.01084794,0.00592618,0.00005319,0.00007068,0
 .00005096,0.00001547,0.00005678,0.00015806,-0.00023019,0.00037652,-0.0
 0082091,-0.04700601,-0.00137637,-0.00109527,-0.00010259,-0.00002332,-0
 .00004724,-0.00004248,0.00004499,0.00008137,0.00008649,-0.00004717,0.0
 0012394,0.00020531,-0.00078009,0.00040321,0.00018492,-0.00016479,-0.00
 001104,0.00002957,0.00001245,-0.00002924,0.00000458,0.00001396,-0.0000
 4332,-0.00002363,0.00000334,0.00003246,0.00005142,0.00001762,-0.000043
 42,-0.00003532,0.00002385,-0.00001568,-0.00005045,-0.00002576,-0.00010
 379,-0.00012671,-0.00008173,0.00002337,0.00005373,0.00009230,-0.000087
 03,0.00033689,-0.00002349,-0.00033139,0.00200635,0.02775446,-0.0121451
 3,-0.00048515,-0.01751559,0.00834126,0.04717398,-0.00011942,0.00096859
 ,-0.00008179,0.00021095,-0.00018016,-0.00041894,-0.00004880,-0.0001849
 4,0.00001393,-0.00010532,-0.00002929,-0.00008567,0.00039488,0.00016605
 ,-0.00021591,0.00023144,0.00095521,-0.00026992,-0.00031132,0.00045512,
 -0.00062678,0.00001653,0.00004415,0.00001798,-0.00001531,0.00000842,0.
 00011488,0.00008773,0.00059003,-0.00029773,-0.00270094,-0.28163685,0.0
 9774236,-0.00012072,-0.00001846,0.00004335,-0.00003128,0.00002059,0.00
 003959,0.00004578,-0.00009016,0.00013119,-0.00002153,0.00015302,-0.000
 00974,-0.00010231,0.00015788,-0.00022802,-0.00000309,0.00000281,-0.000
 00942,-0.00000379,0.00000874,-0.00003429,-0.00000341,0.00001993,0.0000
 1785,0.00001672,0.00000108,-0.00002725,0.00000129,0.00001404,-0.000023
 80,-0.00007919,-0.00000144,-0.00001840,-0.00001069,0.00016602,-0.00001
 271,-0.00010559,0.00001238,-0.00003670,0.00015096,0.00029650,0.0000048
 2,-0.00100031,-0.00879537,0.00314605,0.00079159,-0.01514776,0.00684365
 ,0.00283515,0.30204386,-0.00054537,-0.00113674,0.00041537,-0.00167224,
 0.00182945,0.00165701,0.00027225,0.00009142,0.00003938,-0.00006017,0.0
 0001613,0.00000607,-0.00086793,-0.00058981,-0.00109021,0.00240762,-0.0
 0138466,-0.00537996,0.00071935,0.02933811,-0.01385592,-0.00015499,0.00
 001347,-0.00006680,-0.00001277,-0.00003606,0.00004634,0.00030577,0.001
 36995,0.00145982,0.00013623,0.09456435,-0.08550118,0.00027350,0.000507
 58,0.00043129,0.00002564,-0.00005579,0.00006103,0.00013373,-0.00004168
 ,0.00009433,0.00058062,0.00172187,-0.00072785,-0.00002636,-0.00031760,
 0.00006633,-0.00001447,-0.00003537,0.00005822,-0.00001605,-0.00002277,
 0.00005727,0.00003249,-0.00001781,-0.00001459,-0.00002214,-0.00001276,
 -0.00001477,0.00003752,-0.00001199,-0.00000553,0.00002668,0.00000643,0
 .00000464,0.00006956,-0.00031953,0.00033831,0.00007746,-0.00006839,-0.
 00006785,-0.00043853,-0.00071398,-0.00043598,-0.00024314,-0.00129998,-
 0.00061358,0.00084668,-0.01767526,0.00769399,-0.00187096,-0.10571858,0
 .09534481\\-0.00000079,-0.00000261,0.00000044,0.00000128,0.00000775,0.
 00000085,-0.00000771,0.00000092,-0.00000165,0.00000175,-0.00000226,0.0
 0000450,-0.00000131,0.00001681,-0.00000024,-0.00000177,0.,-0.00000558,
 0.00000755,0.00000024,0.00000114,-0.00000210,-0.00000014,-0.00000235,0
 .00000115,0.00000079,-0.00000185,-0.00000114,0.00000089,0.00000164,0.0
 0000172,-0.00000045,0.00000244,0.00000019,-0.00001194,0.00000100,-0.00
 000033,-0.00000217,-0.00000270,-0.00000067,0.00000134,-0.00000194,0.00
 000070,0.00000048,0.00000222,0.00000048,-0.00000237,0.00000240,-0.0000
 0039,-0.00000038,0.00000040,0.00000080,-0.00000089,0.00000033,0.000000
 18,0.00000025,-0.00000053,0.00000170,-0.00000150,-0.00000026,0.0000013
 0,-0.00000114,0.00000047,0.00000062,-0.00000039,-0.00000064,-0.0000005
 7,-0.00000016,0.00000040,-0.00000178,-0.00000166,0.00000006,-0.0000011
 9,-0.00000103,-0.00000019,0.00000052,-0.00000024,-0.00000034,-0.000000
 15,-0.00000056,-0.00000045,-0.00000004,0.00000040,0.00000044\\\@
 The archive entry for this job was punched.


 THE SCIENTIFIC THEORIST IS NOT TO BE ENVIED. FOR NATURE, OR MORE
 PRECISELY EXPERIMENT, IS AN INEXORABLE AND NOT VERY FRIENDLY JUDGE OF HIS
 WORK.  IT NEVER SAYS "YES" TO A THEORY. IN THE MOST FAVORABLE CASES
 IT SAYS "MAYBE", AND IN THE GREAT MAJORITY OF CASES SIMPLY "NO"...
 PROBABLY EVERY THEORY WILL SOME DAY EXPERIENCE ITS "NO" - MOST
 THEORIES, SOON AFTER CONCEPTION.  -- A.EINSTEIN, NOV 11, 1922.
 Job cpu time:       0 days 21 hours  6 minutes 53.6 seconds.
 Elapsed time:       0 days  1 hours  3 minutes 21.1 seconds.
 File lengths (MBytes):  RWF=    913 Int=      0 D2E=      0 Chk=     26 Scr=      1
 Normal termination of Gaussian 16 at Fri Jan 10 06:29:06 2025.
