 Entering Gaussian System, Link 0=g16
 Input=gjfs/data_set_3-catalyst-Mix_18_opt.gjf
 Output=gjfs/data_set_3-catalyst-Mix_18_opt.log
 Initial command:
 /usr/local/intel/g16/l1.exe "/scr/Gau-1187477.inp" -scrdir="/scr/"
 Entering Link 1 = /usr/local/intel/g16/l1.exe PID=   1187479.
  
 Copyright (c) 1988-2019, Gaussian, Inc.  All Rights Reserved.
  
 This is part of the Gaussian(R) 16 program.  It is based on
 the Gaussian(R) 09 system (copyright 2009, Gaussian, Inc.),
 the Gaussian(R) 03 system (copyright 2003, Gaussian, Inc.),
 the Gaussian(R) 98 system (copyright 1998, Gaussian, Inc.),
 the Gaussian(R) 94 system (copyright 1995, Gaussian, Inc.),
 the Gaussian 92(TM) system (copyright 1992, Gaussian, Inc.),
 the Gaussian 90(TM) system (copyright 1990, Gaussian, Inc.),
 the Gaussian 88(TM) system (copyright 1988, Gaussian, Inc.),
 the Gaussian 86(TM) system (copyright 1986, Carnegie Mellon
 University), and the Gaussian 82(TM) system (copyright 1983,
 Carnegie Mellon University). Gaussian is a federally registered
 trademark of Gaussian, Inc.
  
 This software contains proprietary and confidential information,
 including trade secrets, belonging to Gaussian, Inc.
  
 This software is provided under written license and may be
 used, copied, transmitted, or stored only in accord with that
 written license.
  
 The following legend is applicable only to US Government
 contracts under FAR:
  
                    RESTRICTED RIGHTS LEGEND
  
 Use, reproduction and disclosure by the US Government is
 subject to restrictions as set forth in subparagraphs (a)
 and (c) of the Commercial Computer Software - Restricted
 Rights clause in FAR 52.227-19.
  
 Gaussian, Inc.
 340 Quinnipiac St., Bldg. 40, Wallingford CT 06492
  
  
 ---------------------------------------------------------------
 Warning -- This program may not be used in any manner that
 competes with the business of Gaussian, Inc. or will provide
 assistance to any competitor of Gaussian, Inc.  The licensee
 of this program is prohibited from giving any competitor of
 Gaussian, Inc. access to this program.  By using this program,
 the user acknowledges that Gaussian, Inc. is engaged in the
 business of creating and licensing software in the field of
 computational chemistry and represents and warrants to the
 licensee that it is not a competitor of Gaussian, Inc. and that
 it will not use this program in any manner prohibited above.
 ---------------------------------------------------------------
  

 Cite this work as:
 Gaussian 16, Revision C.01,
 M. J. Frisch, G. W. Trucks, H. B. Schlegel, G. E. Scuseria, 
 M. A. Robb, J. R. Cheeseman, G. Scalmani, V. Barone, 
 G. A. Petersson, H. Nakatsuji, X. Li, M. Caricato, A. V. Marenich, 
 J. Bloino, B. G. Janesko, R. Gomperts, B. Mennucci, H. P. Hratchian, 
 J. V. Ortiz, A. F. Izmaylov, J. L. Sonnenberg, D. Williams-Young, 
 F. Ding, F. Lipparini, F. Egidi, J. Goings, B. Peng, A. Petrone, 
 T. Henderson, D. Ranasinghe, V. G. Zakrzewski, J. Gao, N. Rega, 
 G. Zheng, W. Liang, M. Hada, M. Ehara, K. Toyota, R. Fukuda, 
 J. Hasegawa, M. Ishida, T. Nakajima, Y. Honda, O. Kitao, H. Nakai, 
 T. Vreven, K. Throssell, J. A. Montgomery, Jr., J. E. Peralta, 
 F. Ogliaro, M. J. Bearpark, J. J. Heyd, E. N. Brothers, K. N. Kudin, 
 V. N. Staroverov, T. A. Keith, R. Kobayashi, J. Normand, 
 K. Raghavachari, A. P. Rendell, J. C. Burant, S. S. Iyengar, 
 J. Tomasi, M. Cossi, J. M. Millam, M. Klene, C. Adamo, R. Cammi, 
 J. W. Ochterski, R. L. Martin, K. Morokuma, O. Farkas, 
 J. B. Foresman, and D. J. Fox, Gaussian, Inc., Wallingford CT, 2019.
 
 ******************************************
 Gaussian 16:  ES64L-G16RevC.01  3-Jul-2019
                 9-Jan-2025 
 ******************************************
 %nprocshared=20
 Will use up to   20 processors via shared memory.
 %mem=30GB
 %chk=outputs/data_set_3-catalyst-Mix_18_opt.chk
 ----------------------------------
 #p M062X/DEF2TZVP opt freq pop=NBO
 ----------------------------------
 1/18=20,19=15,26=3,38=1/1,3;
 2/9=110,12=2,17=6,18=5,40=1/2;
 3/5=44,7=101,11=2,25=1,30=1,71=1,74=-55/1,2,3;
 4//1;
 5/5=2,38=5/2;
 6/7=2,8=2,9=2,10=2,28=1,40=1/1,7;
 7//1,2,3,16;
 1/18=20,19=15,26=3/3(2);
 2/9=110/2;
 99//99;
 2/9=110/2;
 3/5=44,7=101,11=2,25=1,30=1,71=1,74=-55/1,2,3;
 4/5=5,16=3,69=1/1;
 5/5=2,38=5/2;
 7//1,2,3,16;
 1/18=20,19=15,26=3/3(-5);
 2/9=110/2;
 6/7=2,8=2,9=2,10=2,19=2,28=1,40=1/1,7;
 99/9=1/99;
 Leave Link    1 at Thu Jan  9 16:28:50 2025, MaxMem=  4026531840 cpu:               1.1 elap:               0.1
 (Enter /usr/local/intel/g16/l101.exe)
 ------------------------------
 data_set_3-catalyst-Mix_18_opt
 ------------------------------
 Symbolic Z-matrix:
 Charge =  0 Multiplicity = 2
 O                    -0.78449  -1.93665   0.07382 
 N                    -0.15045  -0.79584  -0.13381 
 C                     1.34955  -0.86281  -0.10993 
 C                    -0.95397   0.46113   0.01888 
 C                     1.77986  -2.13638  -0.85895 
 C                     1.85334  -0.92378   1.35024 
 C                    -1.08118   0.86785   1.52079 
 C                    -2.36128   0.22227  -0.5836 
 H                     1.33738  -2.16288  -1.85982 
 H                     1.45858  -3.02976  -0.32121 
 H                     1.35665  -1.74351   1.87731 
 H                     1.67063   0.00936   1.89104 
 H                    -1.78548   1.7097    1.55736 
 H                    -0.12034   1.26477   1.87091 
 H                    -2.90662   1.17183  -0.50113 
 H                    -2.88355  -0.50933   0.03734 
 C                    -2.38855  -0.27127  -2.03929 
 C                    -1.55738  -0.23248   2.48124 
 C                     1.94173   0.3735   -0.83755 
 C                     1.23457   1.651    -0.44411 
 C                    -0.249     1.62449  -0.73279 
 H                    -3.42469  -0.43348  -2.35418 
 H                    -1.85633  -1.22169  -2.13239 
 H                    -1.94712   0.44898  -2.7376 
 H                    -0.87631  -1.08731   2.48306 
 H                    -2.54997  -0.60651   2.21436 
 H                    -1.61055   0.16736   3.49955 
 H                     1.82235   0.23544  -1.91972 
 H                     3.00759   0.45018  -0.61039 
 H                    -0.38016   1.49679  -1.81294 
 H                    -0.70425   2.57205  -0.43476 
 O                     1.81399   2.61876   0.07575 
 H                     2.87115  -2.148    -0.95336 
 H                     2.93216  -1.111     1.35712 
 
 ITRead=  0  0  0  0  0  0  0  0  0  0  0  0  0  0  0  0  0  0  0  0
 ITRead=  0  0  0  0  0  0  0  0  0  0  0  0  0  0
 MicOpt= -1 -1 -1 -1 -1 -1 -1 -1 -1 -1 -1 -1 -1 -1 -1 -1 -1 -1 -1 -1
 MicOpt= -1 -1 -1 -1 -1 -1 -1 -1 -1 -1 -1 -1 -1 -1
 NAtoms=     34 NQM=       34 NQMF=       0 NMMI=      0 NMMIF=      0
                NMic=       0 NMicF=      0.
                    Isotopes and Nuclear Properties:
 (Nuclear quadrupole moments (NQMom) in fm**2, nuclear magnetic moments (NMagM)
  in nuclear magnetons)

  Atom         1           2           3           4           5           6           7           8           9          10
 IAtWgt=          16          14          12          12          12          12          12          12           1           1
 AtmWgt=  15.9949146  14.0030740  12.0000000  12.0000000  12.0000000  12.0000000  12.0000000  12.0000000   1.0078250   1.0078250
 NucSpn=           0           2           0           0           0           0           0           0           1           1
 AtZEff=  -0.0000000  -0.0000000  -0.0000000  -0.0000000  -0.0000000  -0.0000000  -0.0000000  -0.0000000  -0.0000000  -0.0000000
 NQMom=    0.0000000   2.0440000   0.0000000   0.0000000   0.0000000   0.0000000   0.0000000   0.0000000   0.0000000   0.0000000
 NMagM=    0.0000000   0.4037610   0.0000000   0.0000000   0.0000000   0.0000000   0.0000000   0.0000000   2.7928460   2.7928460
 AtZNuc=   8.0000000   7.0000000   6.0000000   6.0000000   6.0000000   6.0000000   6.0000000   6.0000000   1.0000000   1.0000000

  Atom        11          12          13          14          15          16          17          18          19          20
 IAtWgt=           1           1           1           1           1           1          12          12          12          12
 AtmWgt=   1.0078250   1.0078250   1.0078250   1.0078250   1.0078250   1.0078250  12.0000000  12.0000000  12.0000000  12.0000000
 NucSpn=           1           1           1           1           1           1           0           0           0           0
 AtZEff=  -0.0000000  -0.0000000  -0.0000000  -0.0000000  -0.0000000  -0.0000000  -0.0000000  -0.0000000  -0.0000000  -0.0000000
 NQMom=    0.0000000   0.0000000   0.0000000   0.0000000   0.0000000   0.0000000   0.0000000   0.0000000   0.0000000   0.0000000
 NMagM=    2.7928460   2.7928460   2.7928460   2.7928460   2.7928460   2.7928460   0.0000000   0.0000000   0.0000000   0.0000000
 AtZNuc=   1.0000000   1.0000000   1.0000000   1.0000000   1.0000000   1.0000000   6.0000000   6.0000000   6.0000000   6.0000000

  Atom        21          22          23          24          25          26          27          28          29          30
 IAtWgt=          12           1           1           1           1           1           1           1           1           1
 AtmWgt=  12.0000000   1.0078250   1.0078250   1.0078250   1.0078250   1.0078250   1.0078250   1.0078250   1.0078250   1.0078250
 NucSpn=           0           1           1           1           1           1           1           1           1           1
 AtZEff=  -0.0000000  -0.0000000  -0.0000000  -0.0000000  -0.0000000  -0.0000000  -0.0000000  -0.0000000  -0.0000000  -0.0000000
 NQMom=    0.0000000   0.0000000   0.0000000   0.0000000   0.0000000   0.0000000   0.0000000   0.0000000   0.0000000   0.0000000
 NMagM=    0.0000000   2.7928460   2.7928460   2.7928460   2.7928460   2.7928460   2.7928460   2.7928460   2.7928460   2.7928460
 AtZNuc=   6.0000000   1.0000000   1.0000000   1.0000000   1.0000000   1.0000000   1.0000000   1.0000000   1.0000000   1.0000000

  Atom        31          32          33          34
 IAtWgt=           1          16           1           1
 AtmWgt=   1.0078250  15.9949146   1.0078250   1.0078250
 NucSpn=           1           0           1           1
 AtZEff=  -0.0000000  -0.0000000  -0.0000000  -0.0000000
 NQMom=    0.0000000   0.0000000   0.0000000   0.0000000
 NMagM=    2.7928460   0.0000000   2.7928460   2.7928460
 AtZNuc=   1.0000000   8.0000000   1.0000000   1.0000000
 Leave Link  101 at Thu Jan  9 16:28:52 2025, MaxMem=  4026531840 cpu:              25.1 elap:               1.3
 (Enter /usr/local/intel/g16/l103.exe)

 GradGradGradGradGradGradGradGradGradGradGradGradGradGradGradGradGradGrad
 Berny optimization.
 Initialization pass.
                           ----------------------------
                           !    Initial Parameters    !
                           ! (Angstroms and Degrees)  !
 --------------------------                            --------------------------
 ! Name  Definition              Value          Derivative Info.                !
 --------------------------------------------------------------------------------
 ! R1    R(1,2)                  1.3216         estimate D2E/DX2                !
 ! R2    R(2,3)                  1.5017         estimate D2E/DX2                !
 ! R3    R(2,4)                  1.4996         estimate D2E/DX2                !
 ! R4    R(3,5)                  1.5389         estimate D2E/DX2                !
 ! R5    R(3,6)                  1.5458         estimate D2E/DX2                !
 ! R6    R(3,19)                 1.552          estimate D2E/DX2                !
 ! R7    R(4,7)                  1.5612         estimate D2E/DX2                !
 ! R8    R(4,8)                  1.5494         estimate D2E/DX2                !
 ! R9    R(4,21)                 1.5541         estimate D2E/DX2                !
 ! R10   R(5,9)                  1.0946         estimate D2E/DX2                !
 ! R11   R(5,10)                 1.0911         estimate D2E/DX2                !
 ! R12   R(5,33)                 1.0954         estimate D2E/DX2                !
 ! R13   R(6,11)                 1.0938         estimate D2E/DX2                !
 ! R14   R(6,12)                 1.0939         estimate D2E/DX2                !
 ! R15   R(6,34)                 1.095          estimate D2E/DX2                !
 ! R16   R(7,13)                 1.0982         estimate D2E/DX2                !
 ! R17   R(7,14)                 1.097          estimate D2E/DX2                !
 ! R18   R(7,18)                 1.5362         estimate D2E/DX2                !
 ! R19   R(8,15)                 1.0981         estimate D2E/DX2                !
 ! R20   R(8,16)                 1.0925         estimate D2E/DX2                !
 ! R21   R(8,17)                 1.5373         estimate D2E/DX2                !
 ! R22   R(17,22)                1.095          estimate D2E/DX2                !
 ! R23   R(17,23)                1.0933         estimate D2E/DX2                !
 ! R24   R(17,24)                1.096          estimate D2E/DX2                !
 ! R25   R(18,25)                1.093          estimate D2E/DX2                !
 ! R26   R(18,26)                1.0938         estimate D2E/DX2                !
 ! R27   R(18,27)                1.0953         estimate D2E/DX2                !
 ! R28   R(19,20)                1.5122         estimate D2E/DX2                !
 ! R29   R(19,28)                1.0975         estimate D2E/DX2                !
 ! R30   R(19,29)                1.0925         estimate D2E/DX2                !
 ! R31   R(20,21)                1.5116         estimate D2E/DX2                !
 ! R32   R(20,32)                1.242          estimate D2E/DX2                !
 ! R33   R(21,30)                1.0955         estimate D2E/DX2                !
 ! R34   R(21,31)                1.0927         estimate D2E/DX2                !
 ! A1    A(1,2,3)              115.9909         estimate D2E/DX2                !
 ! A2    A(1,2,4)              116.7742         estimate D2E/DX2                !
 ! A3    A(3,2,4)              124.8175         estimate D2E/DX2                !
 ! A4    A(2,3,5)              107.9676         estimate D2E/DX2                !
 ! A5    A(2,3,6)              110.0182         estimate D2E/DX2                !
 ! A6    A(2,3,19)             109.765          estimate D2E/DX2                !
 ! A7    A(5,3,6)              109.6323         estimate D2E/DX2                !
 ! A8    A(5,3,19)             108.9274         estimate D2E/DX2                !
 ! A9    A(6,3,19)             110.4826         estimate D2E/DX2                !
 ! A10   A(2,4,7)              111.0984         estimate D2E/DX2                !
 ! A11   A(2,4,8)              108.5339         estimate D2E/DX2                !
 ! A12   A(2,4,21)             109.5806         estimate D2E/DX2                !
 ! A13   A(7,4,8)              109.8911         estimate D2E/DX2                !
 ! A14   A(7,4,21)             107.8927         estimate D2E/DX2                !
 ! A15   A(8,4,21)             109.837          estimate D2E/DX2                !
 ! A16   A(3,5,9)              110.612          estimate D2E/DX2                !
 ! A17   A(3,5,10)             110.8179         estimate D2E/DX2                !
 ! A18   A(3,5,33)             109.226          estimate D2E/DX2                !
 ! A19   A(9,5,10)             108.166          estimate D2E/DX2                !
 ! A20   A(9,5,33)             108.8836         estimate D2E/DX2                !
 ! A21   A(10,5,33)            109.0948         estimate D2E/DX2                !
 ! A22   A(3,6,11)             109.6776         estimate D2E/DX2                !
 ! A23   A(3,6,12)             112.2655         estimate D2E/DX2                !
 ! A24   A(3,6,34)             109.4979         estimate D2E/DX2                !
 ! A25   A(11,6,12)            108.9794         estimate D2E/DX2                !
 ! A26   A(11,6,34)            108.4346         estimate D2E/DX2                !
 ! A27   A(12,6,34)            107.8973         estimate D2E/DX2                !
 ! A28   A(4,7,13)             106.4985         estimate D2E/DX2                !
 ! A29   A(4,7,14)             109.2651         estimate D2E/DX2                !
 ! A30   A(4,7,18)             116.1115         estimate D2E/DX2                !
 ! A31   A(13,7,14)            105.8867         estimate D2E/DX2                !
 ! A32   A(13,7,18)            109.2352         estimate D2E/DX2                !
 ! A33   A(14,7,18)            109.3378         estimate D2E/DX2                !
 ! A34   A(4,8,15)             106.7721         estimate D2E/DX2                !
 ! A35   A(4,8,16)             108.4482         estimate D2E/DX2                !
 ! A36   A(4,8,17)             115.7098         estimate D2E/DX2                !
 ! A37   A(15,8,16)            107.3956         estimate D2E/DX2                !
 ! A38   A(15,8,17)            109.8712         estimate D2E/DX2                !
 ! A39   A(16,8,17)            108.3438         estimate D2E/DX2                !
 ! A40   A(8,17,22)            109.6727         estimate D2E/DX2                !
 ! A41   A(8,17,23)            110.5542         estimate D2E/DX2                !
 ! A42   A(8,17,24)            112.6553         estimate D2E/DX2                !
 ! A43   A(22,17,23)           107.9016         estimate D2E/DX2                !
 ! A44   A(22,17,24)           107.1714         estimate D2E/DX2                !
 ! A45   A(23,17,24)           108.7203         estimate D2E/DX2                !
 ! A46   A(7,18,25)            111.597          estimate D2E/DX2                !
 ! A47   A(7,18,26)            111.9433         estimate D2E/DX2                !
 ! A48   A(7,18,27)            109.5623         estimate D2E/DX2                !
 ! A49   A(25,18,26)           107.3641         estimate D2E/DX2                !
 ! A50   A(25,18,27)           108.3137         estimate D2E/DX2                !
 ! A51   A(26,18,27)           107.9165         estimate D2E/DX2                !
 ! A52   A(3,19,20)            111.8726         estimate D2E/DX2                !
 ! A53   A(3,19,28)            108.6985         estimate D2E/DX2                !
 ! A54   A(3,19,29)            109.3114         estimate D2E/DX2                !
 ! A55   A(20,19,28)           108.1764         estimate D2E/DX2                !
 ! A56   A(20,19,29)           110.0496         estimate D2E/DX2                !
 ! A57   A(28,19,29)           108.6627         estimate D2E/DX2                !
 ! A58   A(19,20,21)           113.2314         estimate D2E/DX2                !
 ! A59   A(19,20,32)           123.2969         estimate D2E/DX2                !
 ! A60   A(21,20,32)           123.4683         estimate D2E/DX2                !
 ! A61   A(4,21,20)            111.466          estimate D2E/DX2                !
 ! A62   A(4,21,30)            109.5907         estimate D2E/DX2                !
 ! A63   A(4,21,31)            109.1616         estimate D2E/DX2                !
 ! A64   A(20,21,30)           107.9282         estimate D2E/DX2                !
 ! A65   A(20,21,31)           109.9742         estimate D2E/DX2                !
 ! A66   A(30,21,31)           108.6705         estimate D2E/DX2                !
 ! D1    D(1,2,3,5)             41.6444         estimate D2E/DX2                !
 ! D2    D(1,2,3,6)            -77.9641         estimate D2E/DX2                !
 ! D3    D(1,2,3,19)           160.2564         estimate D2E/DX2                !
 ! D4    D(4,2,3,5)           -156.6393         estimate D2E/DX2                !
 ! D5    D(4,2,3,6)             83.7522         estimate D2E/DX2                !
 ! D6    D(4,2,3,19)           -38.0273         estimate D2E/DX2                !
 ! D7    D(1,2,4,7)             81.1941         estimate D2E/DX2                !
 ! D8    D(1,2,4,8)            -39.7353         estimate D2E/DX2                !
 ! D9    D(1,2,4,21)          -159.6776         estimate D2E/DX2                !
 ! D10   D(3,2,4,7)            -80.3934         estimate D2E/DX2                !
 ! D11   D(3,2,4,8)            158.6772         estimate D2E/DX2                !
 ! D12   D(3,2,4,21)            38.735          estimate D2E/DX2                !
 ! D13   D(2,3,5,9)             53.8002         estimate D2E/DX2                !
 ! D14   D(2,3,5,10)           -66.1578         estimate D2E/DX2                !
 ! D15   D(2,3,5,33)           173.6267         estimate D2E/DX2                !
 ! D16   D(6,3,5,9)            173.6523         estimate D2E/DX2                !
 ! D17   D(6,3,5,10)            53.6943         estimate D2E/DX2                !
 ! D18   D(6,3,5,33)           -66.5213         estimate D2E/DX2                !
 ! D19   D(19,3,5,9)           -65.345          estimate D2E/DX2                !
 ! D20   D(19,3,5,10)          174.697          estimate D2E/DX2                !
 ! D21   D(19,3,5,33)           54.4814         estimate D2E/DX2                !
 ! D22   D(2,3,6,11)            53.3788         estimate D2E/DX2                !
 ! D23   D(2,3,6,12)           -67.9295         estimate D2E/DX2                !
 ! D24   D(2,3,6,34)           172.2528         estimate D2E/DX2                !
 ! D25   D(5,3,6,11)           -65.2115         estimate D2E/DX2                !
 ! D26   D(5,3,6,12)           173.4803         estimate D2E/DX2                !
 ! D27   D(5,3,6,34)            53.6626         estimate D2E/DX2                !
 ! D28   D(19,3,6,11)          174.7303         estimate D2E/DX2                !
 ! D29   D(19,3,6,12)           53.422          estimate D2E/DX2                !
 ! D30   D(19,3,6,34)          -66.3956         estimate D2E/DX2                !
 ! D31   D(2,3,19,20)           44.152          estimate D2E/DX2                !
 ! D32   D(2,3,19,28)          -75.2373         estimate D2E/DX2                !
 ! D33   D(2,3,19,29)          166.3011         estimate D2E/DX2                !
 ! D34   D(5,3,19,20)          162.1698         estimate D2E/DX2                !
 ! D35   D(5,3,19,28)           42.7804         estimate D2E/DX2                !
 ! D36   D(5,3,19,29)          -75.6811         estimate D2E/DX2                !
 ! D37   D(6,3,19,20)          -77.3495         estimate D2E/DX2                !
 ! D38   D(6,3,19,28)          163.2612         estimate D2E/DX2                !
 ! D39   D(6,3,19,29)           44.7996         estimate D2E/DX2                !
 ! D40   D(2,4,7,13)          -172.6969         estimate D2E/DX2                !
 ! D41   D(2,4,7,14)            73.3528         estimate D2E/DX2                !
 ! D42   D(2,4,7,18)           -50.8387         estimate D2E/DX2                !
 ! D43   D(8,4,7,13)           -52.5695         estimate D2E/DX2                !
 ! D44   D(8,4,7,14)          -166.5199         estimate D2E/DX2                !
 ! D45   D(8,4,7,18)            69.2887         estimate D2E/DX2                !
 ! D46   D(21,4,7,13)           67.1682         estimate D2E/DX2                !
 ! D47   D(21,4,7,14)          -46.7821         estimate D2E/DX2                !
 ! D48   D(21,4,7,18)         -170.9736         estimate D2E/DX2                !
 ! D49   D(2,4,8,15)          -177.3048         estimate D2E/DX2                !
 ! D50   D(2,4,8,16)            67.2463         estimate D2E/DX2                !
 ! D51   D(2,4,8,17)           -54.6806         estimate D2E/DX2                !
 ! D52   D(7,4,8,15)            61.0236         estimate D2E/DX2                !
 ! D53   D(7,4,8,16)           -54.4253         estimate D2E/DX2                !
 ! D54   D(7,4,8,17)          -176.3522         estimate D2E/DX2                !
 ! D55   D(21,4,8,15)          -57.5225         estimate D2E/DX2                !
 ! D56   D(21,4,8,16)         -172.9714         estimate D2E/DX2                !
 ! D57   D(21,4,8,17)           65.1017         estimate D2E/DX2                !
 ! D58   D(2,4,21,20)          -45.5197         estimate D2E/DX2                !
 ! D59   D(2,4,21,30)           73.8893         estimate D2E/DX2                !
 ! D60   D(2,4,21,31)         -167.2032         estimate D2E/DX2                !
 ! D61   D(7,4,21,20)           75.5662         estimate D2E/DX2                !
 ! D62   D(7,4,21,30)         -165.0247         estimate D2E/DX2                !
 ! D63   D(7,4,21,31)          -46.1173         estimate D2E/DX2                !
 ! D64   D(8,4,21,20)         -164.6618         estimate D2E/DX2                !
 ! D65   D(8,4,21,30)          -45.2528         estimate D2E/DX2                !
 ! D66   D(8,4,21,31)           73.6546         estimate D2E/DX2                !
 ! D67   D(4,7,18,25)           60.1997         estimate D2E/DX2                !
 ! D68   D(4,7,18,26)          -60.167          estimate D2E/DX2                !
 ! D69   D(4,7,18,27)         -179.8456         estimate D2E/DX2                !
 ! D70   D(13,7,18,25)        -179.4031         estimate D2E/DX2                !
 ! D71   D(13,7,18,26)          60.2302         estimate D2E/DX2                !
 ! D72   D(13,7,18,27)         -59.4484         estimate D2E/DX2                !
 ! D73   D(14,7,18,25)         -63.9542         estimate D2E/DX2                !
 ! D74   D(14,7,18,26)         175.6791         estimate D2E/DX2                !
 ! D75   D(14,7,18,27)          56.0005         estimate D2E/DX2                !
 ! D76   D(4,8,17,22)          178.4259         estimate D2E/DX2                !
 ! D77   D(4,8,17,23)           59.565          estimate D2E/DX2                !
 ! D78   D(4,8,17,24)          -62.3011         estimate D2E/DX2                !
 ! D79   D(15,8,17,22)         -60.6055         estimate D2E/DX2                !
 ! D80   D(15,8,17,23)        -179.4664         estimate D2E/DX2                !
 ! D81   D(15,8,17,24)          58.6674         estimate D2E/DX2                !
 ! D82   D(16,8,17,22)          56.4434         estimate D2E/DX2                !
 ! D83   D(16,8,17,23)         -62.4175         estimate D2E/DX2                !
 ! D84   D(16,8,17,24)         175.7163         estimate D2E/DX2                !
 ! D85   D(3,19,20,21)         -58.4759         estimate D2E/DX2                !
 ! D86   D(3,19,20,32)         120.8686         estimate D2E/DX2                !
 ! D87   D(28,19,20,21)         61.2206         estimate D2E/DX2                !
 ! D88   D(28,19,20,32)       -119.435          estimate D2E/DX2                !
 ! D89   D(29,19,20,21)        179.7986         estimate D2E/DX2                !
 ! D90   D(29,19,20,32)         -0.857          estimate D2E/DX2                !
 ! D91   D(19,20,21,4)          59.1325         estimate D2E/DX2                !
 ! D92   D(19,20,21,30)        -61.2585         estimate D2E/DX2                !
 ! D93   D(19,20,21,31)       -179.6563         estimate D2E/DX2                !
 ! D94   D(32,20,21,4)        -120.2106         estimate D2E/DX2                !
 ! D95   D(32,20,21,30)        119.3984         estimate D2E/DX2                !
 ! D96   D(32,20,21,31)          1.0005         estimate D2E/DX2                !
 --------------------------------------------------------------------------------
 Trust Radius=3.00D-01 FncErr=1.00D-07 GrdErr=1.00D-06 EigMax=2.50D+02 EigMin=1.00D-04
 Number of steps in this run=    204 maximum allowed number of steps=    204.
 GradGradGradGradGradGradGradGradGradGradGradGradGradGradGradGradGradGrad

 Leave Link  103 at Thu Jan  9 16:28:52 2025, MaxMem=  4026531840 cpu:               0.4 elap:               0.0
 (Enter /usr/local/intel/g16/l202.exe)
                          Input orientation:                          
 ---------------------------------------------------------------------
 Center     Atomic      Atomic             Coordinates (Angstroms)
 Number     Number       Type             X           Y           Z
 ---------------------------------------------------------------------
      1          8           0       -0.784494   -1.936647    0.073821
      2          7           0       -0.150452   -0.795842   -0.133814
      3          6           0        1.349546   -0.862812   -0.109928
      4          6           0       -0.953969    0.461130    0.018875
      5          6           0        1.779861   -2.136379   -0.858950
      6          6           0        1.853336   -0.923783    1.350243
      7          6           0       -1.081182    0.867853    1.520794
      8          6           0       -2.361276    0.222267   -0.583596
      9          1           0        1.337375   -2.162881   -1.859820
     10          1           0        1.458579   -3.029762   -0.321208
     11          1           0        1.356653   -1.743513    1.877310
     12          1           0        1.670628    0.009363    1.891039
     13          1           0       -1.785480    1.709701    1.557359
     14          1           0       -0.120336    1.264772    1.870913
     15          1           0       -2.906618    1.171828   -0.501127
     16          1           0       -2.883546   -0.509329    0.037344
     17          6           0       -2.388554   -0.271273   -2.039289
     18          6           0       -1.557383   -0.232483    2.481241
     19          6           0        1.941734    0.373496   -0.837549
     20          6           0        1.234565    1.651001   -0.444114
     21          6           0       -0.249004    1.624486   -0.732793
     22          1           0       -3.424694   -0.433481   -2.354182
     23          1           0       -1.856325   -1.221689   -2.132394
     24          1           0       -1.947118    0.448977   -2.737603
     25          1           0       -0.876314   -1.087307    2.483058
     26          1           0       -2.549973   -0.606510    2.214362
     27          1           0       -1.610551    0.167361    3.499549
     28          1           0        1.822350    0.235437   -1.919716
     29          1           0        3.007591    0.450181   -0.610386
     30          1           0       -0.380157    1.496786   -1.812941
     31          1           0       -0.704247    2.572048   -0.434760
     32          8           0        1.813993    2.618757    0.075746
     33          1           0        2.871150   -2.147997   -0.953356
     34          1           0        2.932162   -1.111001    1.357121
 ---------------------------------------------------------------------
                    Distance matrix (angstroms):
                    1          2          3          4          5
     1  O    0.000000
     2  N    1.321574   0.000000
     3  C    2.396041   1.501682   0.000000
     4  C    2.404387   1.499644   2.659999   0.000000
     5  C    2.736032   2.459465   1.538889   3.871880   0.000000
     6  C    3.100531   2.496790   1.545840   3.401689   2.521175
     7  C    3.169696   2.524256   3.400426   1.561207   4.782694
     8  C    2.753062   2.475195   3.895120   1.549368   4.773683
     9  H    2.879666   2.657352   2.180011   3.957927   1.094640
    10  H    2.526326   2.759438   2.179954   4.257038   1.091110
    11  H    2.806133   2.685901   2.173660   3.695024   2.796528
    12  H    3.621721   2.839845   2.206276   3.255396   3.489782
    13  H    4.061861   3.436732   4.384753   2.148784   5.774300
    14  H    3.730915   2.875060   3.257437   2.184223   4.757177
    15  H    3.807439   3.406332   4.733680   2.142039   5.747639
    16  H    2.538619   2.753396   4.250377   2.159954   5.019761
    17  C    3.132365   2.985818   4.248028   2.613520   4.716726
    18  C    3.049132   3.022473   3.944833   2.628394   5.091060
    19  C    3.687774   2.497966   1.551959   3.020966   2.515181
    20  C    4.149226   2.828710   2.538534   2.533739   3.848855
    21  C    3.690399   2.495291   3.021585   1.554149   4.275081
    22  H    3.889134   3.972657   5.292860   3.540651   5.676528
    23  H    2.554872   2.661892   3.807462   2.876471   3.959819
    24  H    3.866135   3.399603   4.415140   2.929960   4.909560
    25  H    2.556214   2.731272   3.424679   2.911337   4.396002
    26  H    3.077027   3.362659   4.546896   2.916719   5.525686
    27  H    4.104246   4.032490   4.780351   3.554222   5.983195
    28  H    3.935451   2.853932   2.169107   3.393673   2.598565
    29  H    4.532659   3.428255   2.173367   4.011240   2.873917
    30  H    3.938505   2.851031   3.385237   2.181145   4.333089
    31  H    4.537998   3.426360   4.015202   2.173504   5.340413
    32  O    5.244411   3.944927   3.517316   3.510015   4.846250
    33  H    3.803090   3.410286   2.162949   4.731206   1.095426
    34  H    4.017721   3.438709   2.172212   4.400513   2.700031
                    6          7          8          9         10
     6  C    0.000000
     7  C    3.442447   0.000000
     8  C    4.776622   2.546346   0.000000
     9  H    3.479380   5.144251   4.582325   0.000000
    10  H    2.717486   5.003475   5.023528   1.770169   0.000000
    11  H    1.093824   3.590178   4.872714   3.760636   2.549178
    12  H    1.093894   2.906294   4.735546   4.347257   3.765008
    13  H    4.496567   1.098217   2.669773   6.035414   6.042801
    14  H    2.992700   1.096974   3.483281   5.271821   5.073597
    15  H    5.520536   2.740945   1.098119   5.565771   6.061409
    16  H    4.932902   2.710308   1.092504   4.914228   5.033408
    17  C    5.468851   3.959927   1.537325   4.182456   5.036020
    18  C    3.659243   1.536218   3.200979   5.563351   4.977401
    19  C    2.545031   3.865772   4.313149   2.800624   3.475948
    20  C    3.198767   3.136378   3.871797   4.069458   4.687732
    21  C    3.905451   2.518664   2.539719   4.258044   4.974662
    22  H    6.466897   4.711789   2.166988   5.090434   5.892369
    23  H    5.096969   4.279347   2.176869   3.340637   4.187853
    24  H    5.747904   4.365690   2.205146   4.287213   5.435013
    25  H    2.959898   2.188738   3.650269   4.991780   4.133856
    26  H    4.498499   2.193657   2.924217   5.842322   5.326327
    27  H    4.220027   2.164808   4.151948   6.545466   5.851439
    28  H    3.469493   4.546159   4.391824   2.447594   3.653640
    29  H    2.657846   4.629735   5.373769   3.343471   3.820087
    30  H    4.566550   3.464214   2.657164   4.042929   5.108410
    31  H    4.684901   2.621174   2.879126   5.349633   6.005913
    32  O    3.765034   3.679112   4.859091   5.180506   5.673593
    33  H    2.800217   5.553170   5.756141   1.781675   1.781145
    34  H    1.094972   4.477676   5.793485   3.741458   2.944466
                   11         12         13         14         15
    11  H    0.000000
    12  H    1.780827   0.000000
    13  H    4.679749   3.866158   0.000000
    14  H    3.351316   2.187238   1.751851   0.000000
    15  H    5.686093   5.293861   2.404916   3.660407   0.000000
    16  H    4.784138   4.944262   2.905217   3.760949   1.765438
    17  C    5.615498   5.657136   4.150161   4.774299   2.171836
    18  C    3.337596   3.290423   2.162791   2.163187   3.561888
    19  C    3.492063   2.766095   4.627435   3.518845   4.925143
    20  C    4.114200   2.887571   3.623536   2.710033   4.169203
    21  C    4.553481   3.630166   2.759133   2.631584   2.705823
    22  H    6.517897   6.646828   4.751884   5.626213   2.505840
    23  H    5.164616   5.490255   4.712997   5.022212   3.081083
    24  H    6.084352   5.891152   4.479090   5.024050   2.538696
    25  H    2.404928   2.835504   3.083303   2.545290   4.258073
    26  H    4.082659   4.277536   2.526051   3.085902   3.265511
    27  H    3.884250   3.657650   2.486265   2.465260   4.323673
    28  H    4.307032   3.820469   5.223020   4.382057   5.025173
    29  H    3.704932   2.870351   5.409162   4.074841   5.959075
    30  H    5.209031   4.487495   3.657757   3.700286   2.865215
    31  H    5.311972   4.197228   2.425128   2.714047   2.610643
    32  O    4.741750   3.181946   3.997220   2.966063   4.970971
    33  H    3.235735   3.766436   6.547498   5.345323   6.678948
    34  H    1.775640   1.769676   5.500236   3.902054   6.538788
                   16         17         18         19         20
    16  H    0.000000
    17  C    2.148044   0.000000
    18  C    2.794277   4.596471   0.000000
    19  C    4.982785   4.539967   4.860596   0.000000
    20  C    4.675218   4.400763   4.460963   1.512249   0.000000
    21  C    3.476649   3.143009   3.935760   2.524932   1.511627
    22  H    2.453159   1.095014   5.187347   5.634708   5.449965
    23  H    2.504077   1.093264   4.727951   4.318158   4.544913
    24  H    3.081490   1.096024   5.277558   4.328865   4.102202
    25  H    3.216295   4.837810   1.092970   4.593666   4.530174
    26  H    2.204569   4.269893   1.093780   5.518152   5.146511
    27  H    3.750372   5.610385   1.095287   5.609959   5.084127
    28  H    5.150749   4.242967   5.568659   1.097451   2.127608
    29  H    6.003808   5.628556   5.555464   1.092490   2.147845
    30  H    3.703378   2.685316   4.776634   2.757598   2.122451
    31  H    3.803566   3.673674   4.134767   3.463681   2.146487
    32  O    5.643870   5.521508   5.028136   2.427266   1.241992
    33  H    6.064919   5.689097   5.922631   2.689824   4.167748
    34  H    5.993854   6.367948   4.710781   2.828649   3.708765
                   21         22         23         24         25
    21  C    0.000000
    22  H    4.116933   0.000000
    23  H    3.555710   1.769249   0.000000
    24  H    2.878311   1.763228   1.779226   0.000000
    25  H    4.253121   5.506416   4.720262   5.546358   0.000000
    26  H    4.354024   4.654747   4.444534   5.098965   1.761958
    27  H    4.678647   6.157783   5.805915   6.252571   1.773852
    28  H    2.762019   5.307324   3.962461   3.863085   5.330746
    29  H    3.464013   6.722795   5.363705   5.392049   5.197883
    30  H    1.095549   3.645282   3.109860   2.099588   5.037789
    31  H    1.092677   4.485334   4.312967   3.369754   4.683391
    32  O    2.428635   6.531810   5.752925   5.173861   5.173762
    33  H    4.900575   6.673794   4.959556   5.757041   5.193986
    34  H    4.687264   7.392051   5.926093   6.558023   3.971497
                   26         27         28         29         30
    26  H    0.000000
    27  H    1.770055   0.000000
    28  H    6.075910   6.415440   0.000000
    29  H    6.323157   6.188601   1.779117   0.000000
    30  H    5.034990   5.612824   2.540362   3.744110   0.000000
    31  H    4.530760   4.699223   3.748138   4.279124   1.777809
    32  O    5.832686   5.427640   3.108400   2.568691   3.104875
    33  H    6.465230   6.728662   2.777515   2.624266   4.959267
    34  H    5.571640   5.182707   3.712444   2.512780   5.274590
                   31         32         33         34
    31  H    0.000000
    32  O    2.569889   0.000000
    33  H    5.944008   4.989847   0.000000
    34  H    5.477149   4.099185   2.533256   0.000000
 Stoichiometry    C11H20NO2(2)
 Framework group  C1[X(C11H20NO2)]
 Deg. of freedom    96
 Full point group                 C1      NOp   1
 Largest Abelian subgroup         C1      NOp   1
 Largest concise Abelian subgroup C1      NOp   1
                         Standard orientation:                         
 ---------------------------------------------------------------------
 Center     Atomic      Atomic             Coordinates (Angstroms)
 Number     Number       Type             X           Y           Z
 ---------------------------------------------------------------------
      1          8           0       -0.784495   -1.936647    0.073821
      2          7           0       -0.150452   -0.795842   -0.133814
      3          6           0        1.349546   -0.862812   -0.109928
      4          6           0       -0.953969    0.461130    0.018875
      5          6           0        1.779860   -2.136379   -0.858950
      6          6           0        1.853336   -0.923783    1.350243
      7          6           0       -1.081182    0.867853    1.520794
      8          6           0       -2.361276    0.222268   -0.583596
      9          1           0        1.337374   -2.162881   -1.859820
     10          1           0        1.458578   -3.029762   -0.321208
     11          1           0        1.356653   -1.743513    1.877310
     12          1           0        1.670628    0.009363    1.891039
     13          1           0       -1.785480    1.709702    1.557359
     14          1           0       -0.120336    1.264772    1.870913
     15          1           0       -2.906618    1.171829   -0.501127
     16          1           0       -2.883546   -0.509328    0.037344
     17          6           0       -2.388554   -0.271272   -2.039289
     18          6           0       -1.557383   -0.232482    2.481241
     19          6           0        1.941734    0.373496   -0.837549
     20          6           0        1.234565    1.651001   -0.444114
     21          6           0       -0.249004    1.624486   -0.732793
     22          1           0       -3.424694   -0.433480   -2.354182
     23          1           0       -1.856325   -1.221688   -2.132394
     24          1           0       -1.947118    0.448978   -2.737603
     25          1           0       -0.876314   -1.087307    2.483058
     26          1           0       -2.549973   -0.606509    2.214362
     27          1           0       -1.610551    0.167362    3.499549
     28          1           0        1.822350    0.235437   -1.919716
     29          1           0        3.007591    0.450180   -0.610386
     30          1           0       -0.380157    1.496786   -1.812941
     31          1           0       -0.704246    2.572048   -0.434760
     32          8           0        1.813994    2.618757    0.075746
     33          1           0        2.871149   -2.147998   -0.953356
     34          1           0        2.932162   -1.111002    1.357121
 ---------------------------------------------------------------------
 Rotational constants (GHZ):           0.7849438           0.6471988           0.5747307
 Leave Link  202 at Thu Jan  9 16:28:52 2025, MaxMem=  4026531840 cpu:               0.1 elap:               0.0
 (Enter /usr/local/intel/g16/l301.exe)
 Standard basis: def2TZVP (5D, 7F)
 Ernie: Thresh=  0.10000D-02 Tol=  0.10000D-05 Strict=F.
 There are   624 symmetry adapted cartesian basis functions of A   symmetry.
 There are   554 symmetry adapted basis functions of A   symmetry.
   554 basis functions,   874 primitive gaussians,   624 cartesian basis functions
    55 alpha electrons       54 beta electrons
       nuclear repulsion energy      1030.5452983810 Hartrees.
 IExCor= 4336 DFT=T Ex+Corr=M062X ExCW=0 ScaHFX=  0.540000
 ScaDFX=  1.000000  1.000000  1.000000  1.000000 ScalE2=  1.000000  1.000000
 IRadAn=      5 IRanWt=     -1 IRanGd=            0 ICorTp=0 IEmpDi=  4
 NAtoms=   34 NActive=   34 NUniq=   34 SFac= 1.00D+00 NAtFMM=   60 NAOKFM=F Big=F
 Integral buffers will be    131072 words long.
 Raffenetti 2 integral format.
 Two-electron integral symmetry is turned on.
 Leave Link  301 at Thu Jan  9 16:28:52 2025, MaxMem=  4026531840 cpu:               1.4 elap:               0.1
 (Enter /usr/local/intel/g16/l302.exe)
 NPDir=0 NMtPBC=     1 NCelOv=     1 NCel=       1 NClECP=     1 NCelD=      1
         NCelK=      1 NCelE2=     1 NClLst=     1 CellRange=     0.0.
 One-electron integrals computed using PRISM.
 One-electron integral symmetry used in STVInt
   1 Symmetry operations used in ECPInt.
 ECPInt:  NShTT=   27495 NPrTT=   80568 LenC2=   26493 LenP2D=   59197.
 LDataN:  DoStor=T MaxTD1= 6 Len=  172
 NBasis=   554 RedAO= T EigKep=  4.41D-05  NBF=   554
 NBsUse=   554 1.00D-06 EigRej= -1.00D+00 NBFU=   554
 Precomputing XC quadrature grid using
 IXCGrd= 4 IRadAn=           5 IRanWt=          -1 IRanGd=           0 AccXCQ= 0.00D+00.
 Generated NRdTot=       0 NPtTot=           0 NUsed=           0 NTot=          32
 NSgBfM=   620   619   619   619   620 MxSgAt=    34 MxSgA2=    34.
 Leave Link  302 at Thu Jan  9 16:28:53 2025, MaxMem=  4026531840 cpu:              23.1 elap:               1.2
 (Enter /usr/local/intel/g16/l303.exe)
 DipDrv:  MaxL=1.
 Leave Link  303 at Thu Jan  9 16:28:53 2025, MaxMem=  4026531840 cpu:               3.3 elap:               0.2
 (Enter /usr/local/intel/g16/l401.exe)
 ExpMin= 9.52D-02 ExpMax= 2.70D+04 ExpMxC= 9.22D+02 IAcc=3 IRadAn=         5 AccDes= 0.00D+00
 Harris functional with IExCor= 1009 and IRadAn=       5 diagonalized for initial guess.
 HarFok:  IExCor= 1009 AccDes= 0.00D+00 IRadAn=         5 IDoV= 1 UseB2=F ITyADJ=14
 ICtDFT=  3500011 ScaDFX=  1.000000  1.000000  1.000000  1.000000
 FoFCou: FMM=F IPFlag=           0 FMFlag=      100000 FMFlg1=           0
         NFxFlg=           0 DoJE=T BraDBF=F KetDBF=T FulRan=T
         wScrn=  0.000000 ICntrl=       500 IOpCl=  0 I1Cent=   200000004 NGrid=           0
         NMat0=    1 NMatS0=      1 NMatT0=    0 NMatD0=    1 NMtDS0=    0 NMtDT0=    0
 Petite list used in FoFCou.
 Harris En= -636.078136344996    
 JPrj=0 DoOrth=F DoCkMO=F.
 Initial guess <Sx>= 0.0000 <Sy>= 0.0000 <Sz>= 0.5000 <S**2>= 0.7500 S= 0.5000
 Leave Link  401 at Thu Jan  9 16:28:57 2025, MaxMem=  4026531840 cpu:              73.7 elap:               3.7
 (Enter /usr/local/intel/g16/l502.exe)
 Integral symmetry usage will be decided dynamically.
 UHF open shell SCF:
 Using DIIS extrapolation, IDIIS=  1040.
 NGot=  4026531840 LenX=  4025734074 LenY=  4025344074
 Requested convergence on RMS density matrix=1.00D-08 within 128 cycles.
 Requested convergence on MAX density matrix=1.00D-06.
 Requested convergence on             energy=1.00D-06.
 No special actions if energy rises.
 Fock matrices will be formed incrementally for  20 cycles.
 Integral accuracy reduced to 1.0D-05 until final iterations.

 Cycle   1  Pass 0  IDiag  1:
 FoFJK:  IHMeth= 1 ICntrl=       0 DoSepK=F KAlg= 0 I1Cent=           0 FoldK=F
 IRaf= 920000000 NMat=       1 IRICut=       1 DoRegI=T DoRafI=F ISym2E= 0 IDoP0=0 IntGTp=1.
 FoFCou: FMM=F IPFlag=           0 FMFlag=      100000 FMFlg1=           0
         NFxFlg=           0 DoJE=F BraDBF=F KetDBF=F FulRan=T
         wScrn=  0.000000 ICntrl=         0 IOpCl=  1 I1Cent=           0 NGrid=           0
         NMat0=    1 NMatS0=      1 NMatT0=    0 NMatD0=    1 NMtDS0=    0 NMtDT0=    0
 Symmetry not used in FoFCou.
 E= -635.792622222271    
 DIIS: error= 1.75D-02 at cycle   1 NSaved=   1.
 NSaved= 1 IEnMin= 1 EnMin= -635.792622222271     IErMin= 1 ErrMin= 1.75D-02
 ErrMax= 1.75D-02  0.00D+00 EMaxC= 1.00D-01 BMatC= 2.49D+00 BMatP= 2.49D+00
 IDIUse=3 WtCom= 8.25D-01 WtEn= 1.75D-01
 Coeff-Com:  0.100D+01
 Coeff-En:   0.100D+01
 Coeff:      0.100D+01
 Gap=     0.300 Goal=   None    Shift=    0.000
 Gap=     0.215 Goal=   None    Shift=    0.000
 GapD=    0.215 DampG=1.000 DampE=0.500 DampFc=0.5000 IDamp=-1.
 Damping current iteration by 5.00D-01
 RMSDP=4.07D-03 MaxDP=6.31D-01              OVMax= 1.96D-01

 Cycle   2  Pass 0  IDiag  1:
 RMSU=  2.03D-03    CP:  1.00D+00
 E= -636.036575084903     Delta-E=       -0.243952862632 Rises=F Damp=T
 DIIS: error= 5.00D-03 at cycle   2 NSaved=   2.
 NSaved= 2 IEnMin= 2 EnMin= -636.036575084903     IErMin= 2 ErrMin= 5.00D-03
 ErrMax= 5.00D-03  0.00D+00 EMaxC= 1.00D-01 BMatC= 2.14D-01 BMatP= 2.49D+00
 IDIUse=3 WtCom= 9.50D-01 WtEn= 5.00D-02
 Coeff-Com: -0.793D-03 0.100D+01
 Coeff-En:   0.000D+00 0.100D+01
 Coeff:     -0.753D-03 0.100D+01
 Gap=     0.313 Goal=   None    Shift=    0.000
 Gap=     0.302 Goal=   None    Shift=    0.000
 RMSDP=1.21D-03 MaxDP=1.62D-01 DE=-2.44D-01 OVMax= 1.35D-01

 Cycle   3  Pass 0  IDiag  1:
 RMSU=  1.09D-03    CP:  9.77D-01  7.57D-01
 E= -636.269848102555     Delta-E=       -0.233273017652 Rises=F Damp=F
 DIIS: error= 5.76D-03 at cycle   3 NSaved=   3.
 NSaved= 3 IEnMin= 3 EnMin= -636.269848102555     IErMin= 2 ErrMin= 5.00D-03
 ErrMax= 5.76D-03  0.00D+00 EMaxC= 1.00D-01 BMatC= 1.79D-01 BMatP= 2.14D-01
 IDIUse=3 WtCom= 9.42D-01 WtEn= 5.76D-02
 Coeff-Com: -0.674D-01 0.509D+00 0.558D+00
 Coeff-En:   0.000D+00 0.000D+00 0.100D+01
 Coeff:     -0.635D-01 0.480D+00 0.583D+00
 Gap=     0.280 Goal=   None    Shift=    0.000
 Gap=     0.293 Goal=   None    Shift=    0.000
 RMSDP=4.32D-04 MaxDP=2.69D-02 DE=-2.33D-01 OVMax= 8.42D-02

 Cycle   4  Pass 0  IDiag  1:
 RMSU=  4.04D-04    CP:  9.82D-01  8.22D-01  9.33D-01
 E= -636.297087112115     Delta-E=       -0.027239009560 Rises=F Damp=F
 DIIS: error= 2.94D-03 at cycle   4 NSaved=   4.
 NSaved= 4 IEnMin= 4 EnMin= -636.297087112115     IErMin= 4 ErrMin= 2.94D-03
 ErrMax= 2.94D-03  0.00D+00 EMaxC= 1.00D-01 BMatC= 3.70D-02 BMatP= 1.79D-01
 IDIUse=3 WtCom= 9.71D-01 WtEn= 2.94D-02
 Coeff-Com: -0.203D-01 0.613D-01 0.331D+00 0.628D+00
 Coeff-En:   0.000D+00 0.000D+00 0.189D+00 0.811D+00
 Coeff:     -0.197D-01 0.595D-01 0.327D+00 0.633D+00
 Gap=     0.278 Goal=   None    Shift=    0.000
 Gap=     0.297 Goal=   None    Shift=    0.000
 RMSDP=1.95D-04 MaxDP=1.58D-02 DE=-2.72D-02 OVMax= 1.55D-02

 Cycle   5  Pass 0  IDiag  1:
 RMSU=  1.04D-04    CP:  9.78D-01  7.86D-01  9.84D-01  6.68D-01
 E= -636.304229294404     Delta-E=       -0.007142182289 Rises=F Damp=F
 DIIS: error= 4.47D-04 at cycle   5 NSaved=   5.
 NSaved= 5 IEnMin= 5 EnMin= -636.304229294404     IErMin= 5 ErrMin= 4.47D-04
 ErrMax= 4.47D-04  0.00D+00 EMaxC= 1.00D-01 BMatC= 5.31D-04 BMatP= 3.70D-02
 IDIUse=3 WtCom= 9.96D-01 WtEn= 4.47D-03
 Coeff-Com: -0.294D-02 0.496D-03 0.948D-01 0.207D+00 0.701D+00
 Coeff-En:   0.000D+00 0.000D+00 0.000D+00 0.000D+00 0.100D+01
 Coeff:     -0.292D-02 0.494D-03 0.944D-01 0.206D+00 0.702D+00
 Gap=     0.277 Goal=   None    Shift=    0.000
 Gap=     0.296 Goal=   None    Shift=    0.000
 RMSDP=3.33D-05 MaxDP=2.36D-03 DE=-7.14D-03 OVMax= 7.86D-03

 Cycle   6  Pass 0  IDiag  1:
 RMSU=  3.09D-05    CP:  9.78D-01  7.84D-01  9.92D-01  6.88D-01  1.02D+00
 E= -636.304378153523     Delta-E=       -0.000148859119 Rises=F Damp=F
 DIIS: error= 1.97D-04 at cycle   6 NSaved=   6.
 NSaved= 6 IEnMin= 6 EnMin= -636.304378153523     IErMin= 6 ErrMin= 1.97D-04
 ErrMax= 1.97D-04  0.00D+00 EMaxC= 1.00D-01 BMatC= 1.26D-04 BMatP= 5.31D-04
 IDIUse=3 WtCom= 9.98D-01 WtEn= 1.97D-03
 Coeff-Com:  0.310D-02-0.107D-01-0.157D-01-0.373D-01 0.233D+00 0.828D+00
 Coeff-En:   0.000D+00 0.000D+00 0.000D+00 0.000D+00 0.000D+00 0.100D+01
 Coeff:      0.309D-02-0.107D-01-0.156D-01-0.373D-01 0.232D+00 0.828D+00
 Gap=     0.279 Goal=   None    Shift=    0.000
 Gap=     0.297 Goal=   None    Shift=    0.000
 RMSDP=2.99D-05 MaxDP=2.50D-03 DE=-1.49D-04 OVMax= 3.74D-03

 Cycle   7  Pass 0  IDiag  1:
 RMSU=  1.46D-05    CP:  9.78D-01  7.78D-01  9.97D-01  6.84D-01  1.22D+00
                    CP:  1.27D+00
 E= -636.304427065729     Delta-E=       -0.000048912206 Rises=F Damp=F
 DIIS: error= 7.24D-05 at cycle   7 NSaved=   7.
 NSaved= 7 IEnMin= 7 EnMin= -636.304427065729     IErMin= 7 ErrMin= 7.24D-05
 ErrMax= 7.24D-05  0.00D+00 EMaxC= 1.00D-01 BMatC= 2.30D-05 BMatP= 1.26D-04
 IDIUse=1 WtCom= 1.00D+00 WtEn= 0.00D+00
 Coeff-Com:  0.160D-02-0.298D-02-0.184D-01-0.537D-01-0.901D-01 0.156D+00
 Coeff-Com:  0.101D+01
 Coeff:      0.160D-02-0.298D-02-0.184D-01-0.537D-01-0.901D-01 0.156D+00
 Coeff:      0.101D+01
 Gap=     0.279 Goal=   None    Shift=    0.000
 Gap=     0.297 Goal=   None    Shift=    0.000
 RMSDP=1.86D-05 MaxDP=1.86D-03 DE=-4.89D-05 OVMax= 3.92D-03

 Cycle   8  Pass 0  IDiag  1:
 RMSU=  7.41D-06    CP:  9.77D-01  7.73D-01  1.00D+00  6.79D-01  1.32D+00
                    CP:  1.47D+00  1.35D+00
 E= -636.304440467725     Delta-E=       -0.000013401996 Rises=F Damp=F
 DIIS: error= 5.62D-05 at cycle   8 NSaved=   8.
 NSaved= 8 IEnMin= 8 EnMin= -636.304440467725     IErMin= 8 ErrMin= 5.62D-05
 ErrMax= 5.62D-05  0.00D+00 EMaxC= 1.00D-01 BMatC= 8.39D-06 BMatP= 2.30D-05
 IDIUse=1 WtCom= 1.00D+00 WtEn= 0.00D+00
 Coeff-Com:  0.415D-03-0.173D-04-0.603D-02-0.231D-01-0.812D-01-0.584D-01
 Coeff-Com:  0.520D+00 0.649D+00
 Coeff:      0.415D-03-0.173D-04-0.603D-02-0.231D-01-0.812D-01-0.584D-01
 Coeff:      0.520D+00 0.649D+00
 Gap=     0.279 Goal=   None    Shift=    0.000
 Gap=     0.297 Goal=   None    Shift=    0.000
 RMSDP=7.13D-06 MaxDP=6.21D-04 DE=-1.34D-05 OVMax= 9.81D-04

 Initial convergence to 1.0D-05 achieved.  Increase integral accuracy.
 Cycle   9  Pass 1  IDiag  1:
 E= -636.304520818163     Delta-E=       -0.000080350438 Rises=F Damp=F
 DIIS: error= 8.33D-05 at cycle   1 NSaved=   1.
 NSaved= 1 IEnMin= 1 EnMin= -636.304520818163     IErMin= 1 ErrMin= 8.33D-05
 ErrMax= 8.33D-05  0.00D+00 EMaxC= 1.00D-01 BMatC= 2.55D-05 BMatP= 2.55D-05
 IDIUse=1 WtCom= 1.00D+00 WtEn= 0.00D+00
 Coeff-Com:  0.100D+01
 Coeff:      0.100D+01
 Gap=     0.279 Goal=   None    Shift=    0.000
 Gap=     0.297 Goal=   None    Shift=    0.000
 RMSDP=7.13D-06 MaxDP=6.21D-04 DE=-8.04D-05 OVMax= 5.83D-04

 Cycle  10  Pass 1  IDiag  1:
 RMSU=  5.82D-05    CP:  1.00D+00
 E= -636.304523765183     Delta-E=       -0.000002947020 Rises=F Damp=F
 DIIS: error= 2.18D-05 at cycle   2 NSaved=   2.
 NSaved= 2 IEnMin= 2 EnMin= -636.304523765183     IErMin= 2 ErrMin= 2.18D-05
 ErrMax= 2.18D-05  0.00D+00 EMaxC= 1.00D-01 BMatC= 2.49D-06 BMatP= 2.55D-05
 IDIUse=1 WtCom= 1.00D+00 WtEn= 0.00D+00
 Coeff-Com:  0.107D+00 0.893D+00
 Coeff:      0.107D+00 0.893D+00
 Gap=     0.279 Goal=   None    Shift=    0.000
 Gap=     0.297 Goal=   None    Shift=    0.000
 RMSDP=5.22D-06 MaxDP=7.72D-04 DE=-2.95D-06 OVMax= 3.30D-04

 Cycle  11  Pass 1  IDiag  1:
 RMSU=  4.51D-06    CP:  1.00D+00  1.04D+00
 E= -636.304523609543     Delta-E=        0.000000155640 Rises=F Damp=F
 DIIS: error= 2.87D-05 at cycle   3 NSaved=   3.
 NSaved= 3 IEnMin= 2 EnMin= -636.304523765183     IErMin= 2 ErrMin= 2.18D-05
 ErrMax= 2.87D-05  0.00D+00 EMaxC= 1.00D-01 BMatC= 4.32D-06 BMatP= 2.49D-06
 IDIUse=1 WtCom= 1.00D+00 WtEn= 0.00D+00
 Coeff-Com: -0.153D-01 0.578D+00 0.438D+00
 Coeff:     -0.153D-01 0.578D+00 0.438D+00
 Gap=     0.279 Goal=   None    Shift=    0.000
 Gap=     0.297 Goal=   None    Shift=    0.000
 RMSDP=2.15D-06 MaxDP=3.18D-04 DE= 1.56D-07 OVMax= 1.74D-04

 Cycle  12  Pass 1  IDiag  1:
 RMSU=  1.29D-06    CP:  1.00D+00  1.04D+00  6.33D-01
 E= -636.304524413652     Delta-E=       -0.000000804109 Rises=F Damp=F
 DIIS: error= 5.97D-06 at cycle   4 NSaved=   4.
 NSaved= 4 IEnMin= 4 EnMin= -636.304524413652     IErMin= 4 ErrMin= 5.97D-06
 ErrMax= 5.97D-06  0.00D+00 EMaxC= 1.00D-01 BMatC= 5.85D-08 BMatP= 2.49D-06
 IDIUse=1 WtCom= 1.00D+00 WtEn= 0.00D+00
 Coeff-Com: -0.274D-02-0.110D+00-0.410D-01 0.115D+01
 Coeff:     -0.274D-02-0.110D+00-0.410D-01 0.115D+01
 Gap=     0.279 Goal=   None    Shift=    0.000
 Gap=     0.297 Goal=   None    Shift=    0.000
 RMSDP=8.80D-07 MaxDP=7.07D-05 DE=-8.04D-07 OVMax= 2.35D-04

 Cycle  13  Pass 1  IDiag  1:
 RMSU=  4.70D-07    CP:  1.00D+00  1.05D+00  7.26D-01  1.47D+00
 E= -636.304524468854     Delta-E=       -0.000000055202 Rises=F Damp=F
 DIIS: error= 4.63D-06 at cycle   5 NSaved=   5.
 NSaved= 5 IEnMin= 5 EnMin= -636.304524468854     IErMin= 5 ErrMin= 4.63D-06
 ErrMax= 4.63D-06  0.00D+00 EMaxC= 1.00D-01 BMatC= 7.07D-08 BMatP= 5.85D-08
 IDIUse=1 WtCom= 1.00D+00 WtEn= 0.00D+00
 Coeff-Com:  0.618D-02-0.416D+00-0.279D+00 0.905D+00 0.783D+00
 Coeff:      0.618D-02-0.416D+00-0.279D+00 0.905D+00 0.783D+00
 Gap=     0.279 Goal=   None    Shift=    0.000
 Gap=     0.297 Goal=   None    Shift=    0.000
 RMSDP=8.37D-07 MaxDP=5.68D-05 DE=-5.52D-08 OVMax= 1.57D-04

 Cycle  14  Pass 1  IDiag  1:
 RMSU=  3.12D-07    CP:  1.00D+00  1.05D+00  8.00D-01  1.97D+00  1.52D+00
 E= -636.304524498993     Delta-E=       -0.000000030139 Rises=F Damp=F
 DIIS: error= 1.63D-06 at cycle   6 NSaved=   6.
 NSaved= 6 IEnMin= 6 EnMin= -636.304524498993     IErMin= 6 ErrMin= 1.63D-06
 ErrMax= 1.63D-06  0.00D+00 EMaxC= 1.00D-01 BMatC= 4.93D-09 BMatP= 5.85D-08
 IDIUse=1 WtCom= 1.00D+00 WtEn= 0.00D+00
 Coeff-Com:  0.334D-02-0.183D+00-0.127D+00 0.318D+00 0.366D+00 0.622D+00
 Coeff:      0.334D-02-0.183D+00-0.127D+00 0.318D+00 0.366D+00 0.622D+00
 Gap=     0.279 Goal=   None    Shift=    0.000
 Gap=     0.297 Goal=   None    Shift=    0.000
 RMSDP=1.06D-07 MaxDP=1.21D-05 DE=-3.01D-08 OVMax= 4.05D-05

 Cycle  15  Pass 1  IDiag  1:
 RMSU=  8.35D-08    CP:  1.00D+00  1.05D+00  7.98D-01  2.01D+00  1.58D+00
                    CP:  1.09D+00
 E= -636.304524500650     Delta-E=       -0.000000001656 Rises=F Damp=F
 DIIS: error= 6.23D-07 at cycle   7 NSaved=   7.
 NSaved= 7 IEnMin= 7 EnMin= -636.304524500650     IErMin= 7 ErrMin= 6.23D-07
 ErrMax= 6.23D-07  0.00D+00 EMaxC= 1.00D-01 BMatC= 8.89D-10 BMatP= 4.93D-09
 IDIUse=1 WtCom= 1.00D+00 WtEn= 0.00D+00
 Coeff-Com:  0.532D-03-0.186D-01-0.149D-01 0.680D-04 0.251D-01 0.283D+00
 Coeff-Com:  0.725D+00
 Coeff:      0.532D-03-0.186D-01-0.149D-01 0.680D-04 0.251D-01 0.283D+00
 Coeff:      0.725D+00
 Gap=     0.279 Goal=   None    Shift=    0.000
 Gap=     0.297 Goal=   None    Shift=    0.000
 RMSDP=7.83D-08 MaxDP=7.24D-06 DE=-1.66D-09 OVMax= 1.29D-05

 Cycle  16  Pass 1  IDiag  1:
 RMSU=  4.44D-08    CP:  1.00D+00  1.05D+00  7.95D-01  2.03D+00  1.63D+00
                    CP:  1.25D+00  1.11D+00
 E= -636.304524501023     Delta-E=       -0.000000000373 Rises=F Damp=F
 DIIS: error= 2.69D-07 at cycle   8 NSaved=   8.
 NSaved= 8 IEnMin= 8 EnMin= -636.304524501023     IErMin= 8 ErrMin= 2.69D-07
 ErrMax= 2.69D-07  0.00D+00 EMaxC= 1.00D-01 BMatC= 8.80D-11 BMatP= 8.89D-10
 IDIUse=1 WtCom= 1.00D+00 WtEn= 0.00D+00
 Coeff-Com: -0.442D-03 0.270D-01 0.178D-01-0.517D-01-0.572D-01-0.333D-01
 Coeff-Com:  0.161D+00 0.937D+00
 Coeff:     -0.442D-03 0.270D-01 0.178D-01-0.517D-01-0.572D-01-0.333D-01
 Coeff:      0.161D+00 0.937D+00
 Gap=     0.279 Goal=   None    Shift=    0.000
 Gap=     0.297 Goal=   None    Shift=    0.000
 RMSDP=4.38D-08 MaxDP=4.50D-06 DE=-3.73D-10 OVMax= 1.03D-05

 Cycle  17  Pass 1  IDiag  1:
 RMSU=  2.11D-08    CP:  1.00D+00  1.05D+00  7.90D-01  2.02D+00  1.65D+00
                    CP:  1.29D+00  1.25D+00  1.40D+00
 E= -636.304524501136     Delta-E=       -0.000000000113 Rises=F Damp=F
 DIIS: error= 1.74D-07 at cycle   9 NSaved=   9.
 NSaved= 9 IEnMin= 9 EnMin= -636.304524501136     IErMin= 9 ErrMin= 1.74D-07
 ErrMax= 1.74D-07  0.00D+00 EMaxC= 1.00D-01 BMatC= 2.66D-11 BMatP= 8.80D-11
 IDIUse=1 WtCom= 1.00D+00 WtEn= 0.00D+00
 Coeff-Com: -0.736D-04 0.161D-02 0.140D-02 0.433D-02 0.306D-05-0.603D-01
 Coeff-Com: -0.158D+00-0.761D-01 0.129D+01
 Coeff:     -0.736D-04 0.161D-02 0.140D-02 0.433D-02 0.306D-05-0.603D-01
 Coeff:     -0.158D+00-0.761D-01 0.129D+01
 Gap=     0.279 Goal=   None    Shift=    0.000
 Gap=     0.297 Goal=   None    Shift=    0.000
 RMSDP=2.61D-08 MaxDP=2.36D-06 DE=-1.13D-10 OVMax= 1.02D-05

 Cycle  18  Pass 1  IDiag  1:
 RMSU=  1.11D-08    CP:  1.00D+00  1.05D+00  7.89D-01  2.01D+00  1.64D+00
                    CP:  1.30D+00  1.34D+00  1.76D+00  1.60D+00
 E= -636.304524501202     Delta-E=       -0.000000000067 Rises=F Damp=F
 DIIS: error= 1.12D-07 at cycle  10 NSaved=  10.
 NSaved=10 IEnMin=10 EnMin= -636.304524501202     IErMin=10 ErrMin= 1.12D-07
 ErrMax= 1.12D-07  0.00D+00 EMaxC= 1.00D-01 BMatC= 1.11D-11 BMatP= 2.66D-11
 IDIUse=1 WtCom= 1.00D+00 WtEn= 0.00D+00
 Coeff-Com:  0.164D-03-0.111D-01-0.713D-02 0.238D-01 0.259D-01-0.111D-01
 Coeff-Com: -0.129D+00-0.437D+00 0.479D+00 0.107D+01
 Coeff:      0.164D-03-0.111D-01-0.713D-02 0.238D-01 0.259D-01-0.111D-01
 Coeff:     -0.129D+00-0.437D+00 0.479D+00 0.107D+01
 Gap=     0.279 Goal=   None    Shift=    0.000
 Gap=     0.297 Goal=   None    Shift=    0.000
 RMSDP=1.82D-08 MaxDP=1.91D-06 DE=-6.68D-11 OVMax= 8.17D-06

 Cycle  19  Pass 1  IDiag  1:
 RMSU=  6.69D-09    CP:  1.00D+00  1.05D+00  7.89D-01  2.01D+00  1.64D+00
                    CP:  1.31D+00  1.40D+00  1.94D+00  2.12D+00  1.70D+00
 E= -636.304524501233     Delta-E=       -0.000000000031 Rises=F Damp=F
 DIIS: error= 4.21D-08 at cycle  11 NSaved=  11.
 NSaved=11 IEnMin=11 EnMin= -636.304524501233     IErMin=11 ErrMin= 4.21D-08
 ErrMax= 4.21D-08  0.00D+00 EMaxC= 1.00D-01 BMatC= 1.91D-12 BMatP= 1.11D-11
 IDIUse=1 WtCom= 1.00D+00 WtEn= 0.00D+00
 Coeff-Com:  0.496D-04-0.247D-02-0.161D-02 0.270D-02 0.522D-02 0.134D-01
 Coeff-Com:  0.200D-01-0.516D-01-0.275D+00 0.214D+00 0.107D+01
 Coeff:      0.496D-04-0.247D-02-0.161D-02 0.270D-02 0.522D-02 0.134D-01
 Coeff:      0.200D-01-0.516D-01-0.275D+00 0.214D+00 0.107D+01
 Gap=     0.279 Goal=   None    Shift=    0.000
 Gap=     0.297 Goal=   None    Shift=    0.000
 RMSDP=8.11D-09 MaxDP=8.27D-07 DE=-3.07D-11 OVMax= 3.52D-06

 SCF Done:  E(UM062X) =  -636.304524501     A.U. after   19 cycles
            NFock= 19  Conv=0.81D-08     -V/T= 2.0060
 <Sx>= 0.0000 <Sy>= 0.0000 <Sz>= 0.5000 <S**2>= 0.7556 S= 0.5028
 <L.S>=  0.00000000000    
 KE= 6.325333874727D+02 PE=-3.541602212341D+03 EE= 1.242219001987D+03
 Annihilation of the first spin contaminant:
 S**2 before annihilation     0.7556,   after     0.7500
 Leave Link  502 at Thu Jan  9 16:38:26 2025, MaxMem=  4026531840 cpu:           11368.2 elap:             568.6
 (Enter /usr/local/intel/g16/l601.exe)
 Copying SCF densities to generalized density rwf, IOpCl= 1 IROHF=0.

 **********************************************************************

            Population analysis using the SCF Density.

 **********************************************************************

 Orbital symmetries:
 Alpha Orbitals:
       Occupied  (A) (A) (A) (A) (A) (A) (A) (A) (A) (A) (A) (A)
                 (A) (A) (A) (A) (A) (A) (A) (A) (A) (A) (A) (A)
                 (A) (A) (A) (A) (A) (A) (A) (A) (A) (A) (A) (A)
                 (A) (A) (A) (A) (A) (A) (A) (A) (A) (A) (A) (A)
                 (A) (A) (A) (A) (A) (A) (A)
       Virtual   (A) (A) (A) (A) (A) (A) (A) (A) (A) (A) (A) (A)
                 (A) (A) (A) (A) (A) (A) (A) (A) (A) (A) (A) (A)
                 (A) (A) (A) (A) (A) (A) (A) (A) (A) (A) (A) (A)
                 (A) (A) (A) (A) (A) (A) (A) (A) (A) (A) (A) (A)
                 (A) (A) (A) (A) (A) (A) (A) (A) (A) (A) (A) (A)
                 (A) (A) (A) (A) (A) (A) (A) (A) (A) (A) (A) (A)
                 (A) (A) (A) (A) (A) (A) (A) (A) (A) (A) (A) (A)
                 (A) (A) (A) (A) (A) (A) (A) (A) (A) (A) (A) (A)
                 (A) (A) (A) (A) (A) (A) (A) (A) (A) (A) (A) (A)
                 (A) (A) (A) (A) (A) (A) (A) (A) (A) (A) (A) (A)
                 (A) (A) (A) (A) (A) (A) (A) (A) (A) (A) (A) (A)
                 (A) (A) (A) (A) (A) (A) (A) (A) (A) (A) (A) (A)
                 (A) (A) (A) (A) (A) (A) (A) (A) (A) (A) (A) (A)
                 (A) (A) (A) (A) (A) (A) (A) (A) (A) (A) (A) (A)
                 (A) (A) (A) (A) (A) (A) (A) (A) (A) (A) (A) (A)
                 (A) (A) (A) (A) (A) (A) (A) (A) (A) (A) (A) (A)
                 (A) (A) (A) (A) (A) (A) (A) (A) (A) (A) (A) (A)
                 (A) (A) (A) (A) (A) (A) (A) (A) (A) (A) (A) (A)
                 (A) (A) (A) (A) (A) (A) (A) (A) (A) (A) (A) (A)
                 (A) (A) (A) (A) (A) (A) (A) (A) (A) (A) (A) (A)
                 (A) (A) (A) (A) (A) (A) (A) (A) (A) (A) (A) (A)
                 (A) (A) (A) (A) (A) (A) (A) (A) (A) (A) (A) (A)
                 (A) (A) (A) (A) (A) (A) (A) (A) (A) (A) (A) (A)
                 (A) (A) (A) (A) (A) (A) (A) (A) (A) (A) (A) (A)
                 (A) (A) (A) (A) (A) (A) (A) (A) (A) (A) (A) (A)
                 (A) (A) (A) (A) (A) (A) (A) (A) (A) (A) (A) (A)
                 (A) (A) (A) (A) (A) (A) (A) (A) (A) (A) (A) (A)
                 (A) (A) (A) (A) (A) (A) (A) (A) (A) (A) (A) (A)
                 (A) (A) (A) (A) (A) (A) (A) (A) (A) (A) (A) (A)
                 (A) (A) (A) (A) (A) (A) (A) (A) (A) (A) (A) (A)
                 (A) (A) (A) (A) (A) (A) (A) (A) (A) (A) (A) (A)
                 (A) (A) (A) (A) (A) (A) (A) (A) (A) (A) (A) (A)
                 (A) (A) (A) (A) (A) (A) (A) (A) (A) (A) (A) (A)
                 (A) (A) (A) (A) (A) (A) (A) (A) (A) (A) (A) (A)
                 (A) (A) (A) (A) (A) (A) (A) (A) (A) (A) (A) (A)
                 (A) (A) (A) (A) (A) (A) (A) (A) (A) (A) (A) (A)
                 (A) (A) (A) (A) (A) (A) (A) (A) (A) (A) (A) (A)
                 (A) (A) (A) (A) (A) (A) (A) (A) (A) (A) (A) (A)
                 (A) (A) (A) (A) (A) (A) (A) (A) (A) (A) (A) (A)
                 (A) (A) (A) (A) (A) (A) (A) (A) (A) (A) (A) (A)
                 (A) (A) (A) (A) (A) (A) (A) (A) (A) (A) (A) (A)
                 (A) (A) (A) (A) (A) (A) (A)
 Beta  Orbitals:
       Occupied  (A) (A) (A) (A) (A) (A) (A) (A) (A) (A) (A) (A)
                 (A) (A) (A) (A) (A) (A) (A) (A) (A) (A) (A) (A)
                 (A) (A) (A) (A) (A) (A) (A) (A) (A) (A) (A) (A)
                 (A) (A) (A) (A) (A) (A) (A) (A) (A) (A) (A) (A)
                 (A) (A) (A) (A) (A) (A)
       Virtual   (A) (A) (A) (A) (A) (A) (A) (A) (A) (A) (A) (A)
                 (A) (A) (A) (A) (A) (A) (A) (A) (A) (A) (A) (A)
                 (A) (A) (A) (A) (A) (A) (A) (A) (A) (A) (A) (A)
                 (A) (A) (A) (A) (A) (A) (A) (A) (A) (A) (A) (A)
                 (A) (A) (A) (A) (A) (A) (A) (A) (A) (A) (A) (A)
                 (A) (A) (A) (A) (A) (A) (A) (A) (A) (A) (A) (A)
                 (A) (A) (A) (A) (A) (A) (A) (A) (A) (A) (A) (A)
                 (A) (A) (A) (A) (A) (A) (A) (A) (A) (A) (A) (A)
                 (A) (A) (A) (A) (A) (A) (A) (A) (A) (A) (A) (A)
                 (A) (A) (A) (A) (A) (A) (A) (A) (A) (A) (A) (A)
                 (A) (A) (A) (A) (A) (A) (A) (A) (A) (A) (A) (A)
                 (A) (A) (A) (A) (A) (A) (A) (A) (A) (A) (A) (A)
                 (A) (A) (A) (A) (A) (A) (A) (A) (A) (A) (A) (A)
                 (A) (A) (A) (A) (A) (A) (A) (A) (A) (A) (A) (A)
                 (A) (A) (A) (A) (A) (A) (A) (A) (A) (A) (A) (A)
                 (A) (A) (A) (A) (A) (A) (A) (A) (A) (A) (A) (A)
                 (A) (A) (A) (A) (A) (A) (A) (A) (A) (A) (A) (A)
                 (A) (A) (A) (A) (A) (A) (A) (A) (A) (A) (A) (A)
                 (A) (A) (A) (A) (A) (A) (A) (A) (A) (A) (A) (A)
                 (A) (A) (A) (A) (A) (A) (A) (A) (A) (A) (A) (A)
                 (A) (A) (A) (A) (A) (A) (A) (A) (A) (A) (A) (A)
                 (A) (A) (A) (A) (A) (A) (A) (A) (A) (A) (A) (A)
                 (A) (A) (A) (A) (A) (A) (A) (A) (A) (A) (A) (A)
                 (A) (A) (A) (A) (A) (A) (A) (A) (A) (A) (A) (A)
                 (A) (A) (A) (A) (A) (A) (A) (A) (A) (A) (A) (A)
                 (A) (A) (A) (A) (A) (A) (A) (A) (A) (A) (A) (A)
                 (A) (A) (A) (A) (A) (A) (A) (A) (A) (A) (A) (A)
                 (A) (A) (A) (A) (A) (A) (A) (A) (A) (A) (A) (A)
                 (A) (A) (A) (A) (A) (A) (A) (A) (A) (A) (A) (A)
                 (A) (A) (A) (A) (A) (A) (A) (A) (A) (A) (A) (A)
                 (A) (A) (A) (A) (A) (A) (A) (A) (A) (A) (A) (A)
                 (A) (A) (A) (A) (A) (A) (A) (A) (A) (A) (A) (A)
                 (A) (A) (A) (A) (A) (A) (A) (A) (A) (A) (A) (A)
                 (A) (A) (A) (A) (A) (A) (A) (A) (A) (A) (A) (A)
                 (A) (A) (A) (A) (A) (A) (A) (A) (A) (A) (A) (A)
                 (A) (A) (A) (A) (A) (A) (A) (A) (A) (A) (A) (A)
                 (A) (A) (A) (A) (A) (A) (A) (A) (A) (A) (A) (A)
                 (A) (A) (A) (A) (A) (A) (A) (A) (A) (A) (A) (A)
                 (A) (A) (A) (A) (A) (A) (A) (A) (A) (A) (A) (A)
                 (A) (A) (A) (A) (A) (A) (A) (A) (A) (A) (A) (A)
                 (A) (A) (A) (A) (A) (A) (A) (A) (A) (A) (A) (A)
                 (A) (A) (A) (A) (A) (A) (A) (A)
 The electronic state is 2-A.
 Alpha  occ. eigenvalues --  -19.63846 -19.63060 -14.84657 -10.64329 -10.61031
 Alpha  occ. eigenvalues --  -10.60739 -10.55985 -10.55800 -10.54730 -10.54318
 Alpha  occ. eigenvalues --  -10.54095 -10.53671 -10.52838 -10.52670  -1.20540
 Alpha  occ. eigenvalues --   -1.15998  -0.98733  -0.93872  -0.86376  -0.85432
 Alpha  occ. eigenvalues --   -0.84938  -0.80693  -0.79429  -0.75405  -0.70718
 Alpha  occ. eigenvalues --   -0.68545  -0.64867  -0.60591  -0.57835  -0.57201
 Alpha  occ. eigenvalues --   -0.56017  -0.54439  -0.54031  -0.51931  -0.51422
 Alpha  occ. eigenvalues --   -0.51088  -0.50244  -0.48464  -0.47290  -0.45908
 Alpha  occ. eigenvalues --   -0.45778  -0.45706  -0.45378  -0.44373  -0.43785
 Alpha  occ. eigenvalues --   -0.43012  -0.42524  -0.41619  -0.40935  -0.40136
 Alpha  occ. eigenvalues --   -0.39013  -0.38784  -0.34796  -0.32846  -0.27754
 Alpha virt. eigenvalues --    0.00156   0.05561   0.07145   0.07520   0.08759
 Alpha virt. eigenvalues --    0.08969   0.10549   0.11287   0.11696   0.12510
 Alpha virt. eigenvalues --    0.12799   0.13705   0.13900   0.14375   0.14702
 Alpha virt. eigenvalues --    0.15384   0.16058   0.16368   0.16629   0.16696
 Alpha virt. eigenvalues --    0.17439   0.18529   0.19457   0.19732   0.20523
 Alpha virt. eigenvalues --    0.21032   0.21512   0.22087   0.22759   0.23879
 Alpha virt. eigenvalues --    0.24337   0.25160   0.25584   0.25952   0.26343
 Alpha virt. eigenvalues --    0.26436   0.27742   0.28378   0.28682   0.30656
 Alpha virt. eigenvalues --    0.31139   0.31746   0.32251   0.34304   0.34847
 Alpha virt. eigenvalues --    0.35018   0.36642   0.37186   0.38162   0.38953
 Alpha virt. eigenvalues --    0.39231   0.39904   0.40288   0.41166   0.41887
 Alpha virt. eigenvalues --    0.42386   0.42862   0.43865   0.44131   0.44211
 Alpha virt. eigenvalues --    0.45219   0.45538   0.45940   0.46444   0.46903
 Alpha virt. eigenvalues --    0.47361   0.47561   0.47815   0.48634   0.49097
 Alpha virt. eigenvalues --    0.49416   0.49994   0.50099   0.50495   0.50586
 Alpha virt. eigenvalues --    0.51748   0.51897   0.52717   0.53026   0.53849
 Alpha virt. eigenvalues --    0.54274   0.54725   0.56262   0.56594   0.57202
 Alpha virt. eigenvalues --    0.57885   0.58236   0.58959   0.60260   0.61545
 Alpha virt. eigenvalues --    0.62353   0.63131   0.63670   0.64528   0.66108
 Alpha virt. eigenvalues --    0.67036   0.69303   0.69531   0.70414   0.72789
 Alpha virt. eigenvalues --    0.73165   0.74070   0.74763   0.76097   0.77041
 Alpha virt. eigenvalues --    0.78003   0.79606   0.81414   0.81847   0.83456
 Alpha virt. eigenvalues --    0.84990   0.86809   0.87688   0.88043   0.90168
 Alpha virt. eigenvalues --    0.91091   0.92182   0.92708   0.93200   0.94208
 Alpha virt. eigenvalues --    0.94338   0.94993   0.96278   0.97195   0.99547
 Alpha virt. eigenvalues --    1.00579   1.01257   1.01684   1.03065   1.04231
 Alpha virt. eigenvalues --    1.05595   1.06474   1.07890   1.08192   1.09876
 Alpha virt. eigenvalues --    1.10893   1.11729   1.12703   1.13420   1.15182
 Alpha virt. eigenvalues --    1.17141   1.17508   1.19035   1.19104   1.20326
 Alpha virt. eigenvalues --    1.21801   1.22258   1.24360   1.26086   1.26355
 Alpha virt. eigenvalues --    1.26925   1.29167   1.29733   1.29822   1.30669
 Alpha virt. eigenvalues --    1.33199   1.34732   1.36852   1.36947   1.37695
 Alpha virt. eigenvalues --    1.39795   1.40767   1.41836   1.44934   1.45657
 Alpha virt. eigenvalues --    1.47410   1.47892   1.52374   1.53498   1.54845
 Alpha virt. eigenvalues --    1.55723   1.56633   1.57307   1.57462   1.58292
 Alpha virt. eigenvalues --    1.58911   1.60577   1.61095   1.61493   1.62451
 Alpha virt. eigenvalues --    1.63647   1.64078   1.64487   1.64819   1.65310
 Alpha virt. eigenvalues --    1.65528   1.67016   1.67118   1.68523   1.68741
 Alpha virt. eigenvalues --    1.69741   1.70454   1.71246   1.71696   1.72105
 Alpha virt. eigenvalues --    1.73589   1.75063   1.75245   1.77430   1.78826
 Alpha virt. eigenvalues --    1.79515   1.80082   1.82488   1.83824   1.83949
 Alpha virt. eigenvalues --    1.86770   1.88431   1.89851   1.91864   1.92398
 Alpha virt. eigenvalues --    1.94027   1.95082   1.96882   1.98491   1.99962
 Alpha virt. eigenvalues --    2.01474   2.01901   2.02937   2.03824   2.06102
 Alpha virt. eigenvalues --    2.06552   2.08202   2.09163   2.09947   2.11800
 Alpha virt. eigenvalues --    2.12123   2.14767   2.14919   2.15958   2.17049
 Alpha virt. eigenvalues --    2.18132   2.18918   2.20405   2.21121   2.21609
 Alpha virt. eigenvalues --    2.22649   2.24308   2.25279   2.27317   2.28051
 Alpha virt. eigenvalues --    2.28817   2.29320   2.30272   2.32065   2.32703
 Alpha virt. eigenvalues --    2.33036   2.34482   2.35883   2.36898   2.37733
 Alpha virt. eigenvalues --    2.38111   2.38678   2.39763   2.40307   2.40577
 Alpha virt. eigenvalues --    2.42916   2.44005   2.44704   2.46163   2.47149
 Alpha virt. eigenvalues --    2.47799   2.48337   2.49326   2.51171   2.51615
 Alpha virt. eigenvalues --    2.52556   2.53342   2.55088   2.55974   2.56389
 Alpha virt. eigenvalues --    2.57616   2.58601   2.59206   2.59569   2.60542
 Alpha virt. eigenvalues --    2.61540   2.62173   2.62304   2.62975   2.63497
 Alpha virt. eigenvalues --    2.64614   2.65191   2.65547   2.66438   2.67756
 Alpha virt. eigenvalues --    2.68938   2.69685   2.69745   2.70986   2.71835
 Alpha virt. eigenvalues --    2.72456   2.74150   2.74975   2.75979   2.76189
 Alpha virt. eigenvalues --    2.77475   2.78637   2.80093   2.80500   2.81618
 Alpha virt. eigenvalues --    2.83721   2.84113   2.87364   2.89161   2.89659
 Alpha virt. eigenvalues --    2.91683   2.92349   2.94490   2.94910   2.96328
 Alpha virt. eigenvalues --    2.97282   2.99709   3.00560   3.01131   3.03382
 Alpha virt. eigenvalues --    3.04507   3.07340   3.08016   3.09103   3.11161
 Alpha virt. eigenvalues --    3.11530   3.11838   3.14071   3.15845   3.16017
 Alpha virt. eigenvalues --    3.17490   3.18468   3.18752   3.20224   3.21493
 Alpha virt. eigenvalues --    3.21723   3.22743   3.23791   3.24172   3.25147
 Alpha virt. eigenvalues --    3.25405   3.26338   3.27823   3.29469   3.30445
 Alpha virt. eigenvalues --    3.31373   3.31970   3.32670   3.33653   3.34546
 Alpha virt. eigenvalues --    3.34741   3.35741   3.36125   3.37170   3.37632
 Alpha virt. eigenvalues --    3.38277   3.39661   3.41053   3.41204   3.41813
 Alpha virt. eigenvalues --    3.42843   3.43477   3.44386   3.44820   3.45456
 Alpha virt. eigenvalues --    3.46478   3.48556   3.49759   3.51475   3.52408
 Alpha virt. eigenvalues --    3.52461   3.54125   3.56124   3.56541   3.57878
 Alpha virt. eigenvalues --    3.59111   3.60175   3.61581   3.62761   3.63417
 Alpha virt. eigenvalues --    3.66072   3.68088   3.69016   3.69392   3.70642
 Alpha virt. eigenvalues --    3.72218   3.73389   3.75811   3.76786   3.78364
 Alpha virt. eigenvalues --    3.80211   3.80629   3.82061   3.84625   3.85501
 Alpha virt. eigenvalues --    3.88995   3.89834   3.91586   3.93331   3.95545
 Alpha virt. eigenvalues --    3.96939   3.98477   3.99889   4.01498   4.03190
 Alpha virt. eigenvalues --    4.04224   4.06082   4.07113   4.10663   4.11506
 Alpha virt. eigenvalues --    4.11955   4.13882   4.14558   4.16515   4.17864
 Alpha virt. eigenvalues --    4.19819   4.20953   4.23509   4.24581   4.27366
 Alpha virt. eigenvalues --    4.29166   4.30305   4.30969   4.32035   4.33484
 Alpha virt. eigenvalues --    4.34513   4.36726   4.37006   4.39869   4.40967
 Alpha virt. eigenvalues --    4.42030   4.43147   4.44223   4.46563   4.47402
 Alpha virt. eigenvalues --    4.48331   4.49992   4.53128   4.56369   4.56869
 Alpha virt. eigenvalues --    4.59080   4.64143   4.65886   4.66317   4.68081
 Alpha virt. eigenvalues --    4.70286   4.73684   4.75810   4.78215   4.82212
 Alpha virt. eigenvalues --    4.84118   4.87385   4.89514   4.96598   4.97756
 Alpha virt. eigenvalues --    5.01121   5.01724   5.06708   5.08214   5.10685
 Alpha virt. eigenvalues --    5.18321   5.21168   5.22325   5.22938   5.25838
 Alpha virt. eigenvalues --    5.35099   5.45083   5.46676   5.53548   5.56189
 Alpha virt. eigenvalues --    5.61795   5.64648   5.78408   5.79492   6.08768
 Alpha virt. eigenvalues --    6.10813   6.23840   6.29860   6.40611   6.42292
 Alpha virt. eigenvalues --    6.44809   6.45455   6.55463   6.80581   6.83063
 Alpha virt. eigenvalues --    6.95198   6.98682   7.00115   7.03747   7.65256
 Alpha virt. eigenvalues --   22.43994  22.46136  22.50929  22.53968  22.62981
 Alpha virt. eigenvalues --   22.65156  22.67444  22.68249  22.75978  22.88150
 Alpha virt. eigenvalues --   23.15797  32.92910  44.10675  44.17905
  Beta  occ. eigenvalues --  -19.63058 -19.62745 -14.83887 -10.64331 -10.61065
  Beta  occ. eigenvalues --  -10.60772 -10.55981 -10.55795 -10.54689 -10.54309
  Beta  occ. eigenvalues --  -10.54059 -10.53662 -10.52840 -10.52671  -1.17527
  Beta  occ. eigenvalues --   -1.15965  -0.97414  -0.93721  -0.86108  -0.85341
  Beta  occ. eigenvalues --   -0.83384  -0.80405  -0.79281  -0.75125  -0.70591
  Beta  occ. eigenvalues --   -0.68124  -0.64704  -0.59539  -0.57481  -0.56148
  Beta  occ. eigenvalues --   -0.54542  -0.54297  -0.53347  -0.51798  -0.51161
  Beta  occ. eigenvalues --   -0.50801  -0.49485  -0.48133  -0.46877  -0.45740
  Beta  occ. eigenvalues --   -0.45484  -0.45377  -0.44353  -0.43747  -0.42993
  Beta  occ. eigenvalues --   -0.42583  -0.42215  -0.41092  -0.40246  -0.39352
  Beta  occ. eigenvalues --   -0.38703  -0.36627  -0.33261  -0.32605
  Beta virt. eigenvalues --   -0.02879   0.00350   0.05592   0.07157   0.07540
  Beta virt. eigenvalues --    0.08825   0.08992   0.10561   0.11326   0.11775
  Beta virt. eigenvalues --    0.12555   0.12924   0.13808   0.13977   0.14446
  Beta virt. eigenvalues --    0.14771   0.15931   0.16135   0.16412   0.16711
  Beta virt. eigenvalues --    0.16818   0.17523   0.18607   0.19556   0.19844
  Beta virt. eigenvalues --    0.20554   0.21094   0.21647   0.22187   0.22831
  Beta virt. eigenvalues --    0.23941   0.24623   0.25203   0.25734   0.26076
  Beta virt. eigenvalues --    0.26516   0.26809   0.27788   0.28450   0.28887
  Beta virt. eigenvalues --    0.30836   0.31489   0.31887   0.32470   0.34449
  Beta virt. eigenvalues --    0.34963   0.35445   0.36748   0.37380   0.38250
  Beta virt. eigenvalues --    0.39162   0.39342   0.39953   0.40371   0.41521
  Beta virt. eigenvalues --    0.42000   0.42482   0.42896   0.43889   0.44219
  Beta virt. eigenvalues --    0.44352   0.45298   0.45609   0.45987   0.46502
  Beta virt. eigenvalues --    0.46958   0.47393   0.47671   0.47834   0.48695
  Beta virt. eigenvalues --    0.49193   0.49450   0.50085   0.50182   0.50582
  Beta virt. eigenvalues --    0.50646   0.51741   0.52005   0.52902   0.53078
  Beta virt. eigenvalues --    0.53937   0.54337   0.54770   0.56318   0.56676
  Beta virt. eigenvalues --    0.57234   0.58075   0.58331   0.59206   0.60433
  Beta virt. eigenvalues --    0.61590   0.62551   0.63404   0.63861   0.64554
  Beta virt. eigenvalues --    0.66325   0.67134   0.69557   0.69909   0.70597
  Beta virt. eigenvalues --    0.72945   0.73351   0.74213   0.74912   0.76279
  Beta virt. eigenvalues --    0.77191   0.78392   0.79697   0.81498   0.81960
  Beta virt. eigenvalues --    0.83485   0.85015   0.86870   0.87765   0.88101
  Beta virt. eigenvalues --    0.90194   0.91118   0.92243   0.92746   0.93320
  Beta virt. eigenvalues --    0.94303   0.94384   0.95115   0.96457   0.97434
  Beta virt. eigenvalues --    0.99681   1.00730   1.01341   1.01744   1.03160
  Beta virt. eigenvalues --    1.04455   1.05721   1.06585   1.07969   1.08235
  Beta virt. eigenvalues --    1.10018   1.11048   1.11809   1.12777   1.13526
  Beta virt. eigenvalues --    1.15256   1.17230   1.17591   1.19039   1.19329
  Beta virt. eigenvalues --    1.20362   1.22056   1.22323   1.24494   1.26192
  Beta virt. eigenvalues --    1.26411   1.26955   1.29319   1.29859   1.30105
  Beta virt. eigenvalues --    1.30702   1.33273   1.34840   1.36925   1.37045
  Beta virt. eigenvalues --    1.37864   1.39966   1.40913   1.41967   1.45064
  Beta virt. eigenvalues --    1.45743   1.47519   1.48002   1.52775   1.53665
  Beta virt. eigenvalues --    1.55131   1.55908   1.56734   1.57432   1.57637
  Beta virt. eigenvalues --    1.58318   1.58959   1.60645   1.61167   1.61532
[...]
 .00005596,0.00000465,0.00000669,-0.00003666,-0.00003380,0.00000690,-0.
 00004019,0.00003128,-0.00001353,-0.00001311,-0.00000036,0.00002816,-0.
 00000124,-0.00361970,-0.00100790,-0.00029280,0.01694052,0.05245628,0.0
 0165913,0.00047987,-0.00001208,0.00025699,0.00287377,-0.00097965,0.015
 86488,0.00037451,0.00155332,-0.00048270,0.00021259,-0.00011663,-0.0003
 2376,-0.00051005,-0.00032681,0.00101207,0.00014340,0.00035450,0.000044
 47,-0.00002230,0.00007974,-0.00000564,-0.00008464,-0.00002363,-0.00005
 001,0.00000415,0.00011420,0.00008166,-0.00005841,-0.00005572,-0.000056
 63,-0.00021473,0.00009348,0.00005721,-0.00025764,-0.00008851,-0.000002
 65,-0.00002412,-0.00003847,-0.00001891,-0.00002326,0.00000152,0.000011
 53,0.00000041,0.00001866,-0.00002742,0.00001854,0.00001309,0.00000391,
 0.00003091,-0.00004394,-0.00000011,-0.00002674,-0.00000627,-0.05529138
 ,-0.00394762,-0.05922366,0.01107255,0.00073964,0.00112121,0.00005176,-
 0.00168198,0.00025075,-0.00002104,-0.00000905,0.00002620,0.00001989,0.
 00002635,-0.00002481,0.00004129,-0.00004672,0.00003821,0.00002326,0.00
 001715,0.00000875,-0.00002212,0.00001198,0.00000483,0.00000274,-0.0000
 0409,-0.00000560,-0.02993398,-0.00130766,-0.00371956,0.05595325,0.0014
 1455,0.06035577,-0.00022318,-0.00000784,-0.00025246,0.00020657,0.00063
 454,-0.00044067,0.00027416,-0.00038890,-0.00019820,0.00165285,0.002080
 64,0.01643176,-0.00008277,-0.00007852,0.00006012,-0.00000768,-0.000070
 67,-0.00003845,-0.00138845,-0.00360010,0.00182779,0.00043822,0.0002956
 0,0.00048070,0.00001730,0.00001478,0.00000107,0.00001776,-0.00003581,-
 0.00000916,-0.00001033,0.00001859,0.00003757,-0.00001713,-0.00001927,0
 .00003337,0.00019095,-0.00005927,-0.00032496,0.00000396,0.00001453,-0.
 00004295,-0.00008612,0.00027479,0.00004103,0.00020112,0.00016808,-0.00
 010233,-0.00080146,-0.00090414,0.00023953,0.00017815,0.00054853,0.0008
 1542,-0.00000618,-0.00019662,0.00322497,0.00006730,-0.00453618,-0.0357
 5472,-0.04958398,0.00306684,-0.03686238,0.00009155,0.00023121,-0.00009
 170,0.00016678,0.00012274,-0.00006458,-0.00123597,-0.00155018,-0.00140
 238,0.00000592,-0.00006752,0.00004198,-0.00006307,-0.00002419,-0.00000
 559,-0.00010456,-0.00024583,0.00024081,-0.00124962,0.00131937,0.000097
 41,0.00031470,-0.00039145,0.00031965,0.05648660,-0.00028981,0.00003516
 ,-0.00035274,0.00017925,0.00128662,-0.00030854,0.00035788,0.00004683,0
 .00023414,0.00274042,0.00136663,0.02647209,0.00001010,0.00003625,0.000
 09357,-0.00005439,0.00000497,0.00002315,-0.00173053,-0.00339106,0.0009
 9823,0.00054792,0.00122438,-0.00034686,0.00000661,-0.00001617,-0.00006
 545,-0.00000481,-0.00001581,-0.00000749,-0.00000354,0.00000534,0.00001
 680,-0.00002245,-0.00000926,-0.00003810,-0.00034419,0.00015363,0.00022
 016,0.00010292,-0.00023176,-0.00006851,-0.00006804,-0.00002907,-0.0001
 8625,0.00039995,0.00003910,0.00001104,-0.00046960,-0.00067948,0.000188
 02,-0.00031823,0.00086911,0.00106876,0.00058024,-0.00049742,-0.0003168
 2,-0.00271977,-0.00229560,-0.00131606,0.00257839,-0.04830197,-0.032217
 55,0.00021542,0.00022254,-0.00015959,0.00005104,-0.00010538,0.00000404
 ,-0.00161759,-0.00056176,-0.00116025,0.00005537,0.00005708,-0.00008240
 ,-0.00005790,-0.00001757,0.00001241,-0.00014556,-0.00032382,0.00026444
 ,0.00089743,-0.00016488,0.00031219,-0.00010381,-0.00004717,0.00001398,
 0.00547697,0.05136273,-0.00008221,0.00021835,0.00023460,-0.00006620,-0
 .00065234,0.00048840,0.00030979,0.00037322,-0.00030487,0.00037373,-0.0
 0094114,-0.01601375,-0.00006184,-0.00002621,0.00000789,-0.00015454,-0.
 00014786,0.00003502,0.00109155,0.00362938,-0.00066826,-0.00110506,-0.0
 0045849,-0.00063904,-0.00000541,0.00004618,0.00002322,0.00001212,-0.00
 002845,-0.00000056,0.00001664,-0.00002683,0.00005937,0.00005075,0.0000
 3666,0.00003064,-0.00001981,-0.00007241,0.00017342,0.00001390,0.000017
 89,0.00037706,0.00019130,0.00004330,-0.00009978,-0.00002533,-0.0001783
 6,-0.00003065,-0.00080453,-0.00054087,0.00002165,0.00002801,-0.0008512
 5,-0.00051072,0.00058669,-0.00072759,-0.00032407,-0.00115772,-0.002407
 53,-0.00752714,-0.03139624,-0.02910599,-0.30438833,-0.00017714,-0.0001
 1443,0.00021794,0.00000700,-0.00012095,0.00000292,-0.00172794,-0.00144
 158,0.00024538,-0.00002851,0.00007294,-0.00004006,0.00007664,0.0000686
 1,-0.00004296,0.00009567,0.00027996,-0.00022903,0.00043155,0.00012532,
 0.00098034,-0.00004544,-0.00011725,0.00043464,0.03594170,0.03198376,0.
 33387695,0.00071621,-0.00156760,0.00026341,-0.00202295,-0.00198110,0.0
 0134542,-0.00044544,-0.00075237,0.00020027,0.00607678,-0.01211362,-0.0
 0484882,0.00012072,0.00013161,-0.00009172,0.00014303,0.00009607,-0.000
 00207,0.00061946,-0.00056549,-0.00006716,0.00097361,-0.00015797,-0.000
 13917,-0.00001815,-0.00000357,0.00001417,-0.00001864,0.00008360,0.0000
 2177,-0.00000647,0.00001991,-0.00008049,-0.00001420,-0.00000455,0.0000
 0270,-0.00013917,-0.00014195,0.00029438,-0.00013918,0.00033268,-0.0001
 4173,-0.00040277,-0.00011440,0.00000637,0.00007672,0.00015599,0.000062
 60,-0.00015309,0.00007840,-0.00015862,-0.00002385,-0.00004576,-0.00016
 791,-0.00638301,-0.00152609,-0.00226283,-0.01436152,0.03352672,0.01221
 029,-0.09120113,0.09486956,0.03140496,-0.00004332,-0.00005471,-0.00001
 162,0.00000619,0.00000871,0.00006104,-0.00004514,-0.00002857,0.0000870
 4,-0.00002279,-0.00000099,0.00000485,0.00000843,-0.00004405,0.00001240
 ,0.00001936,0.00003495,-0.00000685,0.00024830,-0.00037594,-0.00005943,
 -0.00091421,0.00172388,0.00042437,0.00165423,-0.00494231,-0.00099085,0
 .10030561,0.00047429,-0.00230835,0.00042540,-0.00374638,-0.00083081,0.
 00184060,-0.00075541,0.00014140,-0.00015519,0.01086771,-0.02049969,-0.
 00617111,0.00011851,0.00000856,0.00006390,0.00005350,-0.00003862,-0.00
 008913,0.00092934,0.00080826,-0.00185824,0.00126484,0.00014732,-0.0001
 4261,-0.00001184,0.00000745,0.00001878,-0.00002460,0.00001253,-0.00001
 246,-0.00001006,-0.00001833,-0.00001099,0.00002870,0.00003205,0.000020
 28,-0.00058574,0.00042070,0.00066940,0.00018596,-0.00002039,0.00028920
 ,-0.00073670,0.00031866,-0.00012571,-0.00016011,0.00027249,0.00011214,
 -0.00016896,0.00002765,-0.00005805,-0.00025411,0.00023172,0.00013552,-
 0.00006102,0.00119958,0.00000342,-0.00052602,-0.00086339,-0.00030318,0
 .09782284,-0.25233348,-0.07026727,-0.00002942,-0.00002870,-0.00001114,
 0.00002223,0.00008700,0.00013772,0.00003916,-0.00007688,0.00005867,0.0
 0001408,0.00017025,-0.00020359,0.00007261,0.00004034,-0.00005958,-0.00
 000666,0.00000795,-0.00001664,-0.00015094,0.00000873,-0.00010683,0.000
 00459,0.00003683,-0.00012175,0.00020918,-0.00093672,-0.00012957,-0.104
 17474,0.27270253,-0.00045745,0.00161604,0.00006344,0.00226726,0.001913
 01,-0.00119859,0.00042184,-0.00025018,-0.00014037,-0.00704158,0.013275
 53,0.00339991,-0.00009416,-0.00005293,-0.00002475,-0.00005820,-0.00001
 038,0.00006867,0.00002030,0.00164540,-0.00023081,-0.00031083,-0.000466
 44,-0.00008664,0.00001065,0.00002229,0.00001223,0.00003331,-0.00002349
 ,0.00000432,0.00000184,0.00000875,0.00002199,-0.00001413,-0.00002175,-
 0.00000450,0.00050756,0.00039958,-0.00030955,-0.00035229,-0.00010590,0
 .00001436,-0.00011728,-0.00018232,0.00016458,-0.00007873,0.00001799,-0
 .00005076,-0.00026129,0.00012625,-0.00050807,-0.00016606,-0.00012786,0
 .00010278,-0.00096713,-0.00062392,0.00052555,-0.00355397,0.00674947,0.
 00108860,0.03400239,-0.07356450,-0.07345200,-0.00010665,-0.00014213,0.
 00011193,0.00001054,0.00001964,-0.00002956,-0.00005286,-0.00024488,0.0
 0019860,0.00001610,-0.00004685,0.00002563,-0.00004878,-0.00005419,0.00
 004542,-0.00000817,-0.00001724,-0.00000301,-0.00010028,0.00030603,0.00
 046788,-0.00018202,0.00014734,0.00054942,0.01341584,-0.02603375,-0.006
 64625,-0.03783587,0.07500092,0.07630524,0.00134518,-0.00127430,0.00020
 224,-0.00089364,0.00051370,0.00035798,-0.00184015,0.00267950,0.0014200
 6,-0.00358969,0.00525750,-0.00587043,0.00068775,0.00047733,-0.00043618
 ,0.00054616,-0.00018849,-0.00018669,0.00016222,-0.00099335,-0.00045276
 ,-0.00069040,-0.00236031,0.00200499,-0.00006980,0.00000847,0.00006817,
 -0.00024368,0.00026267,0.00005729,-0.00004856,0.00032250,0.00008784,-0
 .00053930,-0.00002537,0.00029837,0.00018229,-0.00010493,-0.00013801,-0
 .00059798,-0.00001117,0.00037108,0.00036279,0.00004729,-0.00005562,-0.
 00116769,-0.00036749,-0.00038223,-0.00018786,0.00029210,-0.00012293,0.
 00003319,0.00031892,0.00041913,0.02152809,0.00247071,0.00001767,-0.258
 23459,-0.23672594,-0.15394276,-0.02554824,-0.04196565,-0.02970395,-0.0
 0016040,-0.00021543,0.00000293,-0.00004408,-0.00018681,0.00000282,-0.0
 0000613,-0.00005984,0.00046929,-0.00003145,-0.00017481,0.00005526,0.00
 005671,-0.00001072,-0.00008920,-0.00006049,-0.00016192,0.00026574,0.00
 065787,0.00221592,0.00173758,0.00357178,-0.00317728,-0.00053685,-0.007
 09541,-0.00127241,-0.00133522,0.00526273,-0.00077432,0.00112512,0.2663
 8921,-0.00130984,-0.00016593,0.00041805,0.00066685,-0.00027072,0.00049
 652,0.00485863,0.00158780,-0.00622043,0.00243896,0.00213730,-0.0013757
 1,-0.00133974,-0.00225860,0.00208527,-0.00072033,-0.00042578,-0.000086
 78,-0.00053396,-0.00026475,-0.00048048,-0.00035786,-0.00028092,0.00050
 938,0.00010221,0.00036354,0.00022178,0.00023676,-0.00111102,-0.0002223
 1,-0.00001316,0.00001611,0.00056346,-0.00000038,-0.00030509,0.00046963
 ,-0.00017175,-0.00001450,0.00002480,0.00011069,-0.00042645,0.00055335,
 -0.00000354,0.00004501,-0.00004212,-0.00019463,-0.00021612,-0.00010104
 ,-0.00004072,0.00004373,-0.00015040,0.00035967,0.00009009,0.00053182,-
 0.01834432,-0.04248476,-0.03542793,-0.23660562,-0.48578873,-0.25035712
 ,-0.02131043,0.00174173,-0.01589451,-0.00014229,-0.00003823,0.00005525
 ,0.00007211,0.00006220,0.00007922,0.00004589,-0.00009251,0.00021753,-0
 .00002597,0.00005976,-0.00014262,0.00009453,0.00014164,-0.00016586,-0.
 00008006,-0.00004012,0.00017888,0.00293405,-0.00706209,-0.00144235,-0.
 00150252,0.00278303,0.00162436,-0.00230271,0.00091454,0.00112750,-0.00
 235369,0.00128152,0.00071435,0.27557705,0.52964574,-0.00043777,-0.0005
 9340,0.00044735,0.00044883,0.00053534,0.00049210,0.00524937,-0.0007253
 8,-0.00745497,-0.00335189,0.00447875,-0.00637932,-0.00120842,-0.001905
 23,0.00226239,-0.00012562,-0.00109251,-0.00098721,-0.00147881,-0.00123
 900,-0.00137384,-0.00063027,-0.00184783,0.00229454,-0.00001762,0.00014
 397,0.00008735,0.00018215,-0.00091713,-0.00051297,0.00005079,0.0003440
 3,0.00069480,-0.00036163,0.00007258,0.00082383,0.00016997,0.00011781,0
 .00011365,0.00077494,0.00007142,0.00080305,0.00006650,0.00009914,-0.00
 006093,-0.00088758,-0.00027337,-0.00049045,-0.00002728,0.00008024,0.00
 008188,0.00063188,0.00047740,0.00086623,-0.00937108,-0.03323971,0.0099
 8181,-0.15401688,-0.25086106,-0.22013389,-0.02260589,-0.02118501,0.012
 52229,-0.00005452,-0.00002227,-0.00004110,0.00004205,0.00000225,0.0000
 2484,0.00007570,0.00001134,0.00005250,-0.00005247,-0.00004062,-0.00012
 153,0.00018031,0.00025200,-0.00027776,-0.00013454,-0.00014281,0.000234
 40,-0.00037206,0.00167029,0.00012401,0.00018500,0.00140320,-0.00034773
 ,0.00235362,0.00078817,0.00025672,0.00040415,0.00102762,-0.00045821,0.
 18424958,0.30236471,0.20644005,-0.00012152,0.00128251,0.00000464,-0.00
 048435,0.00086827,0.00113686,-0.00968351,-0.00137951,-0.00065682,0.000
 04743,-0.00092537,0.00024852,-0.31561242,0.00462670,0.02270331,-0.0000
 5878,-0.00033919,-0.00057928,-0.00015069,0.00012777,-0.00010464,0.0000
 2143,0.00018610,0.00003580,-0.01085616,-0.00001140,0.00194974,-0.00791
 962,0.00076249,-0.00003298,0.00004112,0.00006621,-0.00011377,0.0004221
 3,0.00005108,0.00005698,-0.00001821,0.00004998,0.00008712,0.00002855,0
 .00002001,0.00002620,-0.00006537,0.00003470,-0.00002246,0.00004026,-0.
 00001202,-0.00000237,-0.00000273,-0.00005984,0.00002096,0.00002091,0.0
 0002905,0.00002387,0.00052550,-0.00107047,-0.00036900,-0.00000931,0.00
 028218,0.00004303,0.00017038,-0.00010529,-0.00002365,-0.00002822,0.000
 02430,-0.00000915,0.00005811,0.00001692,0.00004275,0.00000832,0.000015
 27,-0.00001243,-0.00002571,-0.00001663,-0.00003906,0.00002894,-0.00001
 150,-0.00001691,-0.00001065,0.00001958,0.00002421,-0.00017921,0.000245
 41,-0.00003325,0.00041460,0.00037114,-0.00008493,-0.00000155,-0.000025
 82,-0.00000778,0.00007241,0.00003864,-0.00000620,0.00009123,-0.0000823
 4,0.00003438,0.34258681,-0.00141090,0.00105707,0.00086753,0.00208349,-
 0.00664706,-0.00275532,0.02737531,-0.00150341,-0.00153007,0.00097521,0
 .00101852,-0.00031832,0.00167035,-0.04625158,-0.00027224,0.00016692,0.
 00043548,0.00086004,0.00010279,-0.00012312,0.00007865,0.00003820,-0.00
 036941,-0.00010000,-0.00025095,-0.00139102,0.00029909,-0.02581880,0.00
 232867,0.00015722,-0.00010156,0.00000417,-0.00001250,-0.00019224,-0.00
 003630,0.00021307,0.00000462,-0.00004847,-0.00008551,-0.00001762,-0.00
 001354,-0.00003667,0.00013918,0.00002119,0.00005390,-0.00001275,0.0000
 0980,-0.00000615,0.00000475,0.00000197,-0.00002099,-0.00002437,-0.0000
 2577,-0.00001752,0.00063262,0.00111006,0.00006394,0.00036958,-0.000225
 74,-0.00021002,-0.00007898,0.00023607,-0.00001620,-0.00000065,0.000003
 24,0.00002071,-0.00000695,0.00000023,-0.00000424,-0.00000180,-0.000008
 96,0.00001828,0.00001989,0.00000509,0.00000995,-0.00001332,0.00000499,
 0.00000861,0.00000988,-0.00000094,-0.00001167,-0.00003903,0.00006412,0
 .00027564,-0.00024398,-0.00057701,-0.00020201,0.00001116,-0.00000033,0
 .00003249,-0.00008113,-0.00002009,0.00001125,-0.00013215,0.00032465,0.
 00014912,-0.00491902,0.05043255,0.00062970,-0.00057748,0.00025368,0.00
 120929,-0.00240100,-0.00064584,0.01482348,0.00128976,-0.00243217,0.000
 42950,0.00058983,0.00004438,0.02094454,-0.00061405,-0.04933678,0.00057
 075,0.00036587,0.00029315,0.00002371,0.00001880,0.00007753,0.00003251,
 -0.00027422,-0.00010281,-0.02916322,0.00067724,0.00456683,0.01582013,-
 0.00200334,-0.00159557,0.00007793,-0.00008668,-0.00004719,-0.00031955,
 0.00010165,0.00013479,-0.00000732,-0.00002267,-0.00003152,-0.00001489,
 -0.00002076,-0.00001058,0.00008854,0.00000978,0.00006034,-0.00001346,0
 .00000611,0.00000611,-0.00000228,-0.00004639,-0.00000680,-0.00000427,-
 0.00000967,-0.00000685,0.00007786,0.00074177,0.00037940,0.00002920,0.0
 0007955,-0.00020388,-0.00002259,0.00004451,0.00001455,-0.00001550,0.00
 002429,0.00001923,0.00008975,0.00001033,-0.00001548,0.00000520,-0.0000
 1506,0.00001261,0.00001045,0.00002341,0.00001884,-0.00001310,0.0000036
 7,0.00000397,0.00000534,-0.00000081,-0.00001214,-0.00026709,-0.0000769
 2,-0.00012130,-0.00019676,-0.00011493,0.00023587,0.00000221,-0.0000158
 3,0.00000656,-0.00001785,-0.00001787,0.00001520,-0.00002321,-0.0000109
 6,-0.00002197,-0.02457136,0.00280870,0.04911560,0.00035736,0.00034865,
 0.00005557,-0.00055320,0.00020250,-0.00291785,-0.01118381,0.00119059,0
 .00155413,0.00020540,-0.00071368,0.00002914,0.00019490,0.00022861,0.00
 122307,-0.31003748,0.04302786,0.00021730,0.00011426,0.00002227,0.00005
 869,-0.00000876,0.00013910,0.00000444,0.00039521,0.00001722,0.00005551
 ,-0.00018222,-0.00003149,-0.00016520,-0.01239033,0.00294497,-0.0004582
 8,-0.00443899,0.00030933,0.00008118,-0.00003022,0.00004342,0.00000053,
 -0.00005363,-0.00006828,0.00000464,-0.00006447,0.00002140,-0.00002160,
 0.00004182,-0.00000654,0.00000734,-0.00002328,-0.00001608,0.00002210,0
 .00009398,-0.00019558,0.00003609,0.00007941,-0.00050499,0.00051879,-0.
 00035319,0.00017117,0.00006980,0.00013194,-0.00002637,-0.00003223,-0.0
 0002080,0.00001227,-0.00002002,0.00000871,0.00001557,0.00004697,0.0000
 0904,0.00002063,-0.00002177,-0.00001089,0.00014372,-0.00014410,-0.0000
 4318,0.00004647,-0.00000330,-0.00006984,0.00007242,0.00002544,0.000306
 87,-0.00000705,-0.00003173,0.00054000,0.00032271,-0.00004249,-0.000010
 66,-0.00000915,-0.00003524,0.00005124,0.00003085,-0.00001883,0.0001723
 3,-0.00006150,0.00003513,0.00064988,-0.00025776,-0.00021762,0.33612260
 ,0.00024901,0.00092934,-0.00035985,-0.00099498,-0.00012435,0.00037177,
 0.00180249,-0.00184039,0.00065898,-0.00020555,0.00001544,-0.00040521,-
 0.00030111,0.00011619,-0.00061095,0.04355499,-0.05339304,-0.00017239,-
 0.00008728,-0.00061127,-0.00026417,-0.00005720,0.00003372,0.00006593,0
 .00000020,-0.00016600,0.00016332,-0.00020218,-0.00010453,0.00019952,-0
 .02422825,0.00512806,-0.00126027,0.02739594,-0.00364580,0.00102238,0.0
 0024052,0.00012346,0.00004856,0.00037204,0.00028706,0.00011227,-0.0000
 1955,-0.00000040,-0.00001714,-0.00000905,-0.00000473,-0.00001054,0.000
 01886,0.00001416,0.00000107,-0.00006204,-0.00020452,0.00017824,0.00068
 503,0.00000311,-0.00010475,0.00028916,-0.00000137,-0.00012713,-0.00010
 597,0.00008872,-0.00001019,-0.00000026,0.00000355,0.00000956,-0.000004
 23,0.00000743,0.00000514,-0.00000130,-0.00000204,0.00000639,0.00000616
 ,-0.00004326,-0.00008160,-0.00001192,0.00007231,-0.00001050,-0.0000494
 1,0.00003812,-0.00000212,-0.00023332,0.00003599,-0.00008848,-0.0001468
 1,-0.00026009,0.00055666,-0.00000837,0.00000033,0.00003354,-0.00003148
 ,0.00001197,-0.00000515,-0.00026098,0.00000794,-0.00000404,-0.00015991
 ,0.00018488,-0.00048663,-0.04743327,0.05330001,-0.00032638,-0.00062028
 ,0.00056558,-0.00348655,0.00150921,-0.00590508,-0.03001805,0.00497070,
 -0.00062754,0.00020251,-0.00099174,-0.00035622,-0.00041065,0.00034280,
 0.00115647,0.00283948,-0.00033413,-0.04575557,-0.00013744,-0.00001113,
 -0.00029897,-0.00010494,0.00025222,0.00008383,0.00018153,0.00021100,0.
 00034368,0.00005426,-0.00015476,0.00003777,0.01476340,-0.00409321,-0.0
 0037625,0.01558605,-0.00118800,-0.00020199,0.00009147,0.00003266,0.000
 14995,0.00014141,0.00022045,0.00008123,-0.00011900,0.00002681,-0.00003
 247,0.00003435,-0.00004042,-0.00001590,0.00001079,-0.00001848,0.000027
 72,0.00006059,0.00025751,0.00007277,-0.00053038,-0.00056542,0.00086346
 ,-0.00021047,0.00016025,-0.00003511,-0.00001615,-0.00005010,0.00009375
 ,-0.00001467,0.00002348,-0.00000860,0.00001514,0.00001231,0.00007799,-
 0.00000374,0.00002906,-0.00001355,-0.00003745,-0.00029856,0.00002388,0
 .00019017,-0.00010868,-0.00003119,0.00005770,-0.00004172,0.00001669,0.
 00029530,-0.00022070,0.00018913,0.00044999,0.00051654,-0.00024109,-0.0
 0001601,-0.00002876,-0.00000722,0.00006279,0.00005733,-0.00004266,0.00
 006289,-0.00011523,0.00005809,0.00024764,-0.00032879,-0.00066776,0.000
 08439,0.00058777,0.05077518\\0.00000229,0.00001543,-0.00000218,-0.0000
 1291,-0.00001098,-0.00000144,-0.00000605,-0.00000942,-0.00000036,-0.00
 000537,-0.00001283,0.00000696,-0.00000118,0.00000069,0.00000068,0.0000
 0068,0.00000017,0.00000315,0.00000044,0.00000302,0.00000077,0.00000294
 ,0.00000086,-0.00000013,0.00000002,-0.00000098,0.00000061,-0.00000035,
 0.00000036,-0.00000023,0.00000005,-0.00000062,0.00000089,0.00000126,-0
 .00000039,-0.00000070,0.00000143,0.00000029,0.00000023,-0.00000006,-0.
 00000101,0.00000183,0.00000364,0.00000081,-0.00000039,-0.00000051,0.00
 000075,0.00000059,0.00000260,0.00000351,-0.00000034,-0.00000544,0.0000
 0347,0.00000530,0.00001112,0.00000672,-0.00000403,0.00000300,0.0000038
 9,0.00000596,0.00000429,0.00001537,-0.00000724,-0.00000051,-0.00000097
 ,0.00000087,-0.00000070,-0.00000127,0.00000067,-0.00000134,0.00000104,
 0.00000104,0.00000130,-0.00000027,-0.00000008,0.00000185,-0.00000029,-
 0.00000148,0.00000273,0.00000022,-0.00000061,-0.00000055,-0.00000549,-
 0.00000144,-0.00000105,0.00000071,-0.00000186,-0.00000368,-0.00000475,
 -0.00000257,0.00000266,-0.00000055,-0.00000160,-0.00000216,-0.00000611
 ,-0.00000134,-0.00000028,-0.00000068,-0.00000055,-0.00000016,-0.000000
 70,-0.00000098\\\@
 The archive entry for this job was punched.


 MATERIAL COPIED FROM ONE SCHOLARLY BOOK WITHOUT CREDIT COMPRISES PLAGIARISM.
 MATERIAL COPIED FROM TWO SCHOLARLY BOOKS COMPRISES AN ESSAY.
 MATERIAL COPIED FROM THREE SCHOLARLY BOOKS COMPRISES A DISSERTATION.
 MATERIAL COPIED FROM FOUR SCHOLARLY BOOKS COMPRISES A FIFTH SCHOLARLY BOOK.

                               -- C&EN, 25 FEB 1980
 Job cpu time:       1 days 10 hours 59 minutes  8.1 seconds.
 Elapsed time:       0 days  1 hours 44 minutes 58.2 seconds.
 File lengths (MBytes):  RWF=   1641 Int=      0 D2E=      0 Chk=     36 Scr=      1
 Normal termination of Gaussian 16 at Thu Jan  9 20:06:59 2025.
