 Entering Gaussian System, Link 0=g16
 Input=gjfs/data_set_3-catalyst-Mix_5_opt.gjf
 Output=gjfs/data_set_3-catalyst-Mix_5_opt.log
 Initial command:
 /usr/local/intel/g16/l1.exe "/scr/Gau-1210729.inp" -scrdir="/scr/"
 Entering Link 1 = /usr/local/intel/g16/l1.exe PID=   1210731.
  
 Copyright (c) 1988-2019, Gaussian, Inc.  All Rights Reserved.
  
 This is part of the Gaussian(R) 16 program.  It is based on
 the Gaussian(R) 09 system (copyright 2009, Gaussian, Inc.),
 the Gaussian(R) 03 system (copyright 2003, Gaussian, Inc.),
 the Gaussian(R) 98 system (copyright 1998, Gaussian, Inc.),
 the Gaussian(R) 94 system (copyright 1995, Gaussian, Inc.),
 the Gaussian 92(TM) system (copyright 1992, Gaussian, Inc.),
 the Gaussian 90(TM) system (copyright 1990, Gaussian, Inc.),
 the Gaussian 88(TM) system (copyright 1988, Gaussian, Inc.),
 the Gaussian 86(TM) system (copyright 1986, Carnegie Mellon
 University), and the Gaussian 82(TM) system (copyright 1983,
 Carnegie Mellon University). Gaussian is a federally registered
 trademark of Gaussian, Inc.
  
 This software contains proprietary and confidential information,
 including trade secrets, belonging to Gaussian, Inc.
  
 This software is provided under written license and may be
 used, copied, transmitted, or stored only in accord with that
 written license.
  
 The following legend is applicable only to US Government
 contracts under FAR:
  
                    RESTRICTED RIGHTS LEGEND
  
 Use, reproduction and disclosure by the US Government is
 subject to restrictions as set forth in subparagraphs (a)
 and (c) of the Commercial Computer Software - Restricted
 Rights clause in FAR 52.227-19.
  
 Gaussian, Inc.
 340 Quinnipiac St., Bldg. 40, Wallingford CT 06492
  
  
 ---------------------------------------------------------------
 Warning -- This program may not be used in any manner that
 competes with the business of Gaussian, Inc. or will provide
 assistance to any competitor of Gaussian, Inc.  The licensee
 of this program is prohibited from giving any competitor of
 Gaussian, Inc. access to this program.  By using this program,
 the user acknowledges that Gaussian, Inc. is engaged in the
 business of creating and licensing software in the field of
 computational chemistry and represents and warrants to the
 licensee that it is not a competitor of Gaussian, Inc. and that
 it will not use this program in any manner prohibited above.
 ---------------------------------------------------------------
  

 Cite this work as:
 Gaussian 16, Revision C.01,
 M. J. Frisch, G. W. Trucks, H. B. Schlegel, G. E. Scuseria, 
 M. A. Robb, J. R. Cheeseman, G. Scalmani, V. Barone, 
 G. A. Petersson, H. Nakatsuji, X. Li, M. Caricato, A. V. Marenich, 
 J. Bloino, B. G. Janesko, R. Gomperts, B. Mennucci, H. P. Hratchian, 
 J. V. Ortiz, A. F. Izmaylov, J. L. Sonnenberg, D. Williams-Young, 
 F. Ding, F. Lipparini, F. Egidi, J. Goings, B. Peng, A. Petrone, 
 T. Henderson, D. Ranasinghe, V. G. Zakrzewski, J. Gao, N. Rega, 
 G. Zheng, W. Liang, M. Hada, M. Ehara, K. Toyota, R. Fukuda, 
 J. Hasegawa, M. Ishida, T. Nakajima, Y. Honda, O. Kitao, H. Nakai, 
 T. Vreven, K. Throssell, J. A. Montgomery, Jr., J. E. Peralta, 
 F. Ogliaro, M. J. Bearpark, J. J. Heyd, E. N. Brothers, K. N. Kudin, 
 V. N. Staroverov, T. A. Keith, R. Kobayashi, J. Normand, 
 K. Raghavachari, A. P. Rendell, J. C. Burant, S. S. Iyengar, 
 J. Tomasi, M. Cossi, J. M. Millam, M. Klene, C. Adamo, R. Cammi, 
 J. W. Ochterski, R. L. Martin, K. Morokuma, O. Farkas, 
 J. B. Foresman, and D. J. Fox, Gaussian, Inc., Wallingford CT, 2019.
 
 ******************************************
 Gaussian 16:  ES64L-G16RevC.01  3-Jul-2019
                10-Jan-2025 
 ******************************************
 %nprocshared=20
 Will use up to   20 processors via shared memory.
 %mem=30GB
 %chk=outputs/data_set_3-catalyst-Mix_5_opt.chk
 ----------------------------------
 #p M062X/DEF2TZVP opt freq pop=NBO
 ----------------------------------
 1/18=20,19=15,26=3,38=1/1,3;
 2/9=110,12=2,17=6,18=5,40=1/2;
 3/5=44,7=101,11=2,25=1,30=1,71=1,74=-55/1,2,3;
 4//1;
 5/5=2,38=5/2;
 6/7=2,8=2,9=2,10=2,28=1,40=1/1,7;
 7//1,2,3,16;
 1/18=20,19=15,26=3/3(2);
 2/9=110/2;
 99//99;
 2/9=110/2;
 3/5=44,7=101,11=2,25=1,30=1,71=1,74=-55/1,2,3;
 4/5=5,16=3,69=1/1;
 5/5=2,38=5/2;
 7//1,2,3,16;
 1/18=20,19=15,26=3/3(-5);
 2/9=110/2;
 6/7=2,8=2,9=2,10=2,19=2,28=1,40=1/1,7;
 99/9=1/99;
 Leave Link    1 at Fri Jan 10 02:06:44 2025, MaxMem=  4026531840 cpu:               2.5 elap:               0.1
 (Enter /usr/local/intel/g16/l101.exe)
 -----------------------------
 data_set_3-catalyst-Mix_5_opt
 -----------------------------
 Symbolic Z-matrix:
 Charge =  0 Multiplicity = 2
 O                    -0.18929   0.10178  -2.06224 
 N                    -0.22689  -0.28576  -0.80178 
 C                     1.08709  -0.519    -0.13297 
 C                     0.87994  -0.69398   1.38328 
 C                    -0.1753   -1.76422   1.75084 
 C                    -1.28385  -1.93054   0.68097 
 C                    -1.52871  -0.67223  -0.18418 
 C                    -2.08338   0.46799   0.69743 
 H                     0.60222   0.27734   1.80926 
 H                     1.84928  -0.94428   1.82003 
 H                    -0.62052  -1.49574   2.71562 
 H                     0.31356  -2.73302   1.89845 
 H                    -2.22858  -2.21992   1.15598 
 H                    -1.02051  -2.74318  -0.00583 
 H                    -1.39155   0.71383   1.5156 
 H                    -3.03317   0.1272    1.14477 
 C                     1.93333   0.74328  -0.39637 
 H                     1.38128   1.63377  -0.05628 
 H                     2.12883   0.84275  -1.47164 
 C                     1.77932  -1.74845  -0.75795 
 O                     3.17067   0.60312   0.3383 
 O                    -2.30549   1.63053  -0.11982 
 C                    -2.77832   2.77237   0.62124 
 C                     4.10004   1.67859   0.09759 
 H                     2.80953  -1.804    -0.39541 
 H                     1.78772  -1.65085  -1.84771 
 H                     1.26159  -2.67687  -0.49597 
 H                    -2.05358   3.0765    1.39166 
 H                    -3.74434   2.56397   1.1053 
 H                    -2.90095   3.58079  -0.09976 
 H                     4.98845   1.46485   0.69311 
 H                     3.67688   2.64604   0.40517 
 H                     4.37517   1.73402  -0.96555 
 C                    -2.53742  -0.98249  -1.3009 
 H                    -2.14798  -1.76181  -1.96208 
 H                    -2.73462  -0.09068  -1.89487 
 H                    -3.47406  -1.33173  -0.85102 
 
 ITRead=  0  0  0  0  0  0  0  0  0  0  0  0  0  0  0  0  0  0  0  0
 ITRead=  0  0  0  0  0  0  0  0  0  0  0  0  0  0  0  0  0
 MicOpt= -1 -1 -1 -1 -1 -1 -1 -1 -1 -1 -1 -1 -1 -1 -1 -1 -1 -1 -1 -1
 MicOpt= -1 -1 -1 -1 -1 -1 -1 -1 -1 -1 -1 -1 -1 -1 -1 -1 -1
 NAtoms=     37 NQM=       37 NQMF=       0 NMMI=      0 NMMIF=      0
                NMic=       0 NMicF=      0.
                    Isotopes and Nuclear Properties:
 (Nuclear quadrupole moments (NQMom) in fm**2, nuclear magnetic moments (NMagM)
  in nuclear magnetons)

  Atom         1           2           3           4           5           6           7           8           9          10
 IAtWgt=          16          14          12          12          12          12          12          12           1           1
 AtmWgt=  15.9949146  14.0030740  12.0000000  12.0000000  12.0000000  12.0000000  12.0000000  12.0000000   1.0078250   1.0078250
 NucSpn=           0           2           0           0           0           0           0           0           1           1
 AtZEff=  -0.0000000  -0.0000000  -0.0000000  -0.0000000  -0.0000000  -0.0000000  -0.0000000  -0.0000000  -0.0000000  -0.0000000
 NQMom=    0.0000000   2.0440000   0.0000000   0.0000000   0.0000000   0.0000000   0.0000000   0.0000000   0.0000000   0.0000000
 NMagM=    0.0000000   0.4037610   0.0000000   0.0000000   0.0000000   0.0000000   0.0000000   0.0000000   2.7928460   2.7928460
 AtZNuc=   8.0000000   7.0000000   6.0000000   6.0000000   6.0000000   6.0000000   6.0000000   6.0000000   1.0000000   1.0000000

  Atom        11          12          13          14          15          16          17          18          19          20
 IAtWgt=           1           1           1           1           1           1          12           1           1          12
 AtmWgt=   1.0078250   1.0078250   1.0078250   1.0078250   1.0078250   1.0078250  12.0000000   1.0078250   1.0078250  12.0000000
 NucSpn=           1           1           1           1           1           1           0           1           1           0
 AtZEff=  -0.0000000  -0.0000000  -0.0000000  -0.0000000  -0.0000000  -0.0000000  -0.0000000  -0.0000000  -0.0000000  -0.0000000
 NQMom=    0.0000000   0.0000000   0.0000000   0.0000000   0.0000000   0.0000000   0.0000000   0.0000000   0.0000000   0.0000000
 NMagM=    2.7928460   2.7928460   2.7928460   2.7928460   2.7928460   2.7928460   0.0000000   2.7928460   2.7928460   0.0000000
 AtZNuc=   1.0000000   1.0000000   1.0000000   1.0000000   1.0000000   1.0000000   6.0000000   1.0000000   1.0000000   6.0000000

  Atom        21          22          23          24          25          26          27          28          29          30
 IAtWgt=          16          16          12          12           1           1           1           1           1           1
 AtmWgt=  15.9949146  15.9949146  12.0000000  12.0000000   1.0078250   1.0078250   1.0078250   1.0078250   1.0078250   1.0078250
 NucSpn=           0           0           0           0           1           1           1           1           1           1
 AtZEff=  -0.0000000  -0.0000000  -0.0000000  -0.0000000  -0.0000000  -0.0000000  -0.0000000  -0.0000000  -0.0000000  -0.0000000
 NQMom=    0.0000000   0.0000000   0.0000000   0.0000000   0.0000000   0.0000000   0.0000000   0.0000000   0.0000000   0.0000000
 NMagM=    0.0000000   0.0000000   0.0000000   0.0000000   2.7928460   2.7928460   2.7928460   2.7928460   2.7928460   2.7928460
 AtZNuc=   8.0000000   8.0000000   6.0000000   6.0000000   1.0000000   1.0000000   1.0000000   1.0000000   1.0000000   1.0000000

  Atom        31          32          33          34          35          36          37
 IAtWgt=           1           1           1          12           1           1           1
 AtmWgt=   1.0078250   1.0078250   1.0078250  12.0000000   1.0078250   1.0078250   1.0078250
 NucSpn=           1           1           1           0           1           1           1
 AtZEff=  -0.0000000  -0.0000000  -0.0000000  -0.0000000  -0.0000000  -0.0000000  -0.0000000
 NQMom=    0.0000000   0.0000000   0.0000000   0.0000000   0.0000000   0.0000000   0.0000000
 NMagM=    2.7928460   2.7928460   2.7928460   0.0000000   2.7928460   2.7928460   2.7928460
 AtZNuc=   1.0000000   1.0000000   1.0000000   6.0000000   1.0000000   1.0000000   1.0000000
 Leave Link  101 at Fri Jan 10 02:06:46 2025, MaxMem=  4026531840 cpu:              25.0 elap:               1.3
 (Enter /usr/local/intel/g16/l103.exe)

 GradGradGradGradGradGradGradGradGradGradGradGradGradGradGradGradGradGrad
 Berny optimization.
 Initialization pass.
                           ----------------------------
                           !    Initial Parameters    !
                           ! (Angstroms and Degrees)  !
 --------------------------                            --------------------------
 ! Name  Definition              Value          Derivative Info.                !
 --------------------------------------------------------------------------------
 ! R1    R(1,2)                  1.3192         estimate D2E/DX2                !
 ! R2    R(2,3)                  1.4927         estimate D2E/DX2                !
 ! R3    R(2,7)                  1.4918         estimate D2E/DX2                !
 ! R4    R(3,4)                  1.5403         estimate D2E/DX2                !
 ! R5    R(3,17)                 1.5424         estimate D2E/DX2                !
 ! R6    R(3,20)                 1.5432         estimate D2E/DX2                !
 ! R7    R(4,5)                  1.5473         estimate D2E/DX2                !
 ! R8    R(4,9)                  1.0964         estimate D2E/DX2                !
 ! R9    R(4,10)                 1.0923         estimate D2E/DX2                !
 ! R10   R(5,6)                  1.5496         estimate D2E/DX2                !
 ! R11   R(5,11)                 1.096          estimate D2E/DX2                !
 ! R12   R(5,12)                 1.0951         estimate D2E/DX2                !
 ! R13   R(6,7)                  1.5465         estimate D2E/DX2                !
 ! R14   R(6,13)                 1.0963         estimate D2E/DX2                !
 ! R15   R(6,14)                 1.0961         estimate D2E/DX2                !
 ! R16   R(7,8)                  1.5443         estimate D2E/DX2                !
 ! R17   R(7,34)                 1.5365         estimate D2E/DX2                !
 ! R18   R(8,15)                 1.0993         estimate D2E/DX2                !
 ! R19   R(8,16)                 1.1038         estimate D2E/DX2                !
 ! R20   R(8,22)                 1.4383         estimate D2E/DX2                !
 ! R21   R(17,18)                1.1015         estimate D2E/DX2                !
 ! R22   R(17,19)                1.0974         estimate D2E/DX2                !
 ! R23   R(17,21)                1.4458         estimate D2E/DX2                !
 ! R24   R(20,25)                1.0935         estimate D2E/DX2                !
 ! R25   R(20,26)                1.0942         estimate D2E/DX2                !
 ! R26   R(20,27)                1.0948         estimate D2E/DX2                !
 ! R27   R(21,24)                1.4416         estimate D2E/DX2                !
 ! R28   R(22,23)                1.441          estimate D2E/DX2                !
 ! R29   R(23,28)                1.1006         estimate D2E/DX2                !
 ! R30   R(23,29)                1.1004         estimate D2E/DX2                !
 ! R31   R(23,30)                1.0902         estimate D2E/DX2                !
 ! R32   R(24,31)                1.0907         estimate D2E/DX2                !
 ! R33   R(24,32)                1.0998         estimate D2E/DX2                !
 ! R34   R(24,33)                1.0996         estimate D2E/DX2                !
 ! R35   R(34,35)                1.0937         estimate D2E/DX2                !
 ! R36   R(34,36)                1.0895         estimate D2E/DX2                !
 ! R37   R(34,37)                1.0962         estimate D2E/DX2                !
 ! A1    A(1,2,3)              116.6731         estimate D2E/DX2                !
 ! A2    A(1,2,7)              119.7706         estimate D2E/DX2                !
 ! A3    A(3,2,7)              122.8315         estimate D2E/DX2                !
 ! A4    A(2,3,4)              109.9023         estimate D2E/DX2                !
 ! A5    A(2,3,17)             106.1747         estimate D2E/DX2                !
 ! A6    A(2,3,20)             109.7487         estimate D2E/DX2                !
 ! A7    A(4,3,17)             109.5647         estimate D2E/DX2                !
 ! A8    A(4,3,20)             111.6232         estimate D2E/DX2                !
 ! A9    A(17,3,20)            109.6787         estimate D2E/DX2                !
 ! A10   A(3,4,5)              113.8371         estimate D2E/DX2                !
 ! A11   A(3,4,9)              108.4148         estimate D2E/DX2                !
 ! A12   A(3,4,10)             107.4754         estimate D2E/DX2                !
 ! A13   A(5,4,9)              110.3498         estimate D2E/DX2                !
 ! A14   A(5,4,10)             110.5943         estimate D2E/DX2                !
 ! A15   A(9,4,10)             105.8107         estimate D2E/DX2                !
 ! A16   A(4,5,6)              113.4612         estimate D2E/DX2                !
 ! A17   A(4,5,11)             108.4649         estimate D2E/DX2                !
 ! A18   A(4,5,12)             109.8458         estimate D2E/DX2                !
 ! A19   A(6,5,11)             110.0883         estimate D2E/DX2                !
 ! A20   A(6,5,12)             108.5089         estimate D2E/DX2                !
 ! A21   A(11,5,12)            106.2239         estimate D2E/DX2                !
 ! A22   A(5,6,7)              114.3409         estimate D2E/DX2                !
 ! A23   A(5,6,13)             110.2223         estimate D2E/DX2                !
 ! A24   A(5,6,14)             109.8958         estimate D2E/DX2                !
 ! A25   A(7,6,13)             108.7059         estimate D2E/DX2                !
 ! A26   A(7,6,14)             106.9022         estimate D2E/DX2                !
 ! A27   A(13,6,14)            106.4296         estimate D2E/DX2                !
 ! A28   A(2,7,6)              107.7109         estimate D2E/DX2                !
 ! A29   A(2,7,8)              111.007          estimate D2E/DX2                !
 ! A30   A(2,7,34)             108.9236         estimate D2E/DX2                !
 ! A31   A(6,7,8)              109.7694         estimate D2E/DX2                !
 ! A32   A(6,7,34)             110.2565         estimate D2E/DX2                !
 ! A33   A(8,7,34)             109.1594         estimate D2E/DX2                !
 ! A34   A(7,8,15)             111.3432         estimate D2E/DX2                !
 ! A35   A(7,8,16)             108.2074         estimate D2E/DX2                !
 ! A36   A(7,8,22)             109.1387         estimate D2E/DX2                !
 ! A37   A(15,8,16)            107.996          estimate D2E/DX2                !
 ! A38   A(15,8,22)            109.8355         estimate D2E/DX2                !
 ! A39   A(16,8,22)            110.3006         estimate D2E/DX2                !
 ! A40   A(3,17,18)            109.5064         estimate D2E/DX2                !
 ! A41   A(3,17,19)            109.8319         estimate D2E/DX2                !
 ! A42   A(3,17,21)            107.6642         estimate D2E/DX2                !
 ! A43   A(18,17,19)           108.5733         estimate D2E/DX2                !
 ! A44   A(18,17,21)           110.5104         estimate D2E/DX2                !
 ! A45   A(19,17,21)           110.7446         estimate D2E/DX2                !
 ! A46   A(3,20,25)            109.1962         estimate D2E/DX2                !
 ! A47   A(3,20,26)            109.6184         estimate D2E/DX2                !
 ! A48   A(3,20,27)            111.5045         estimate D2E/DX2                !
 ! A49   A(25,20,26)           109.1171         estimate D2E/DX2                !
 ! A50   A(25,20,27)           108.8498         estimate D2E/DX2                !
 ! A51   A(26,20,27)           108.5174         estimate D2E/DX2                !
 ! A52   A(17,21,24)           113.2378         estimate D2E/DX2                !
 ! A53   A(8,22,23)            113.5108         estimate D2E/DX2                !
 ! A54   A(22,23,28)           111.2777         estimate D2E/DX2                !
 ! A55   A(22,23,29)           111.3586         estimate D2E/DX2                !
 ! A56   A(22,23,30)           106.5227         estimate D2E/DX2                !
 ! A57   A(28,23,29)           108.8127         estimate D2E/DX2                !
 ! A58   A(28,23,30)           109.3976         estimate D2E/DX2                !
 ! A59   A(29,23,30)           109.4277         estimate D2E/DX2                !
 ! A60   A(21,24,31)           106.7233         estimate D2E/DX2                !
 ! A61   A(21,24,32)           111.1917         estimate D2E/DX2                !
 ! A62   A(21,24,33)           111.1216         estimate D2E/DX2                !
 ! A63   A(31,24,32)           109.4558         estimate D2E/DX2                !
 ! A64   A(31,24,33)           109.5101         estimate D2E/DX2                !
 ! A65   A(32,24,33)           108.804          estimate D2E/DX2                !
 ! A66   A(7,34,35)            110.4568         estimate D2E/DX2                !
 ! A67   A(7,34,36)            110.4739         estimate D2E/DX2                !
 ! A68   A(7,34,37)            109.0866         estimate D2E/DX2                !
 ! A69   A(35,34,36)           108.5499         estimate D2E/DX2                !
 ! A70   A(35,34,37)           108.9858         estimate D2E/DX2                !
 ! A71   A(36,34,37)           109.2603         estimate D2E/DX2                !
 ! D1    D(1,2,3,4)            169.0526         estimate D2E/DX2                !
 ! D2    D(1,2,3,17)            50.6392         estimate D2E/DX2                !
 ! D3    D(1,2,3,20)           -67.8286         estimate D2E/DX2                !
 ! D4    D(7,2,3,4)            -20.7408         estimate D2E/DX2                !
 ! D5    D(7,2,3,17)          -139.1542         estimate D2E/DX2                !
 ! D6    D(7,2,3,20)           102.378          estimate D2E/DX2                !
 ! D7    D(1,2,7,6)            138.3583         estimate D2E/DX2                !
 ! D8    D(1,2,7,8)           -101.4446         estimate D2E/DX2                !
 ! D9    D(1,2,7,34)            18.7741         estimate D2E/DX2                !
 ! D10   D(3,2,7,6)            -31.5569         estimate D2E/DX2                !
 ! D11   D(3,2,7,8)             88.6402         estimate D2E/DX2                !
 ! D12   D(3,2,7,34)          -151.1411         estimate D2E/DX2                !
 ! D13   D(2,3,4,5)             52.5157         estimate D2E/DX2                !
 ! D14   D(2,3,4,9)            -70.7006         estimate D2E/DX2                !
 ! D15   D(2,3,4,10)           175.3532         estimate D2E/DX2                !
 ! D16   D(17,3,4,5)           168.8164         estimate D2E/DX2                !
 ! D17   D(17,3,4,9)            45.6            estimate D2E/DX2                !
 ! D18   D(17,3,4,10)          -68.3462         estimate D2E/DX2                !
 ! D19   D(20,3,4,5)           -69.4946         estimate D2E/DX2                !
 ! D20   D(20,3,4,9)           167.289          estimate D2E/DX2                !
 ! D21   D(20,3,4,10)           53.3428         estimate D2E/DX2                !
 ! D22   D(2,3,17,18)           54.7762         estimate D2E/DX2                !
 ! D23   D(2,3,17,19)          -64.3658         estimate D2E/DX2                !
 ! D24   D(2,3,17,21)          174.9692         estimate D2E/DX2                !
 ! D25   D(4,3,17,18)          -63.86           estimate D2E/DX2                !
 ! D26   D(4,3,17,19)          176.998          estimate D2E/DX2                !
 ! D27   D(4,3,17,21)           56.333          estimate D2E/DX2                !
 ! D28   D(20,3,17,18)         173.2903         estimate D2E/DX2                !
 ! D29   D(20,3,17,19)          54.1483         estimate D2E/DX2                !
 ! D30   D(20,3,17,21)         -66.5167         estimate D2E/DX2                !
 ! D31   D(2,3,20,25)          169.74           estimate D2E/DX2                !
 ! D32   D(2,3,20,26)           50.2511         estimate D2E/DX2                !
 ! D33   D(2,3,20,27)          -69.9364         estimate D2E/DX2                !
 ! D34   D(4,3,20,25)          -68.1612         estimate D2E/DX2                !
 ! D35   D(4,3,20,26)          172.35           estimate D2E/DX2                !
 ! D36   D(4,3,20,27)           52.1625         estimate D2E/DX2                !
 ! D37   D(17,3,20,25)          53.4619         estimate D2E/DX2                !
 ! D38   D(17,3,20,26)         -66.027          estimate D2E/DX2                !
 ! D39   D(17,3,20,27)         173.7855         estimate D2E/DX2                !
 ! D40   D(3,4,5,6)            -29.2437         estimate D2E/DX2                !
 ! D41   D(3,4,5,11)          -151.9046         estimate D2E/DX2                !
 ! D42   D(3,4,5,12)            92.3946         estimate D2E/DX2                !
 ! D43   D(9,4,5,6)             92.9116         estimate D2E/DX2                !
 ! D44   D(9,4,5,11)           -29.7492         estimate D2E/DX2                !
 ! D45   D(9,4,5,12)          -145.4501         estimate D2E/DX2                !
 ! D46   D(10,4,5,6)          -150.3572         estimate D2E/DX2                !
 ! D47   D(10,4,5,11)           86.982          estimate D2E/DX2                !
 ! D48   D(10,4,5,12)          -28.7189         estimate D2E/DX2                !
 ! D49   D(4,5,6,7)            -25.907          estimate D2E/DX2                !
 ! D50   D(4,5,6,13)          -148.7109         estimate D2E/DX2                !
 ! D51   D(4,5,6,14)            94.2971         estimate D2E/DX2                !
 ! D52   D(11,5,6,7)            95.8526         estimate D2E/DX2                !
 ! D53   D(11,5,6,13)          -26.9513         estimate D2E/DX2                !
 ! D54   D(11,5,6,14)         -143.9434         estimate D2E/DX2                !
 ! D55   D(12,5,6,7)          -148.2891         estimate D2E/DX2                !
 ! D56   D(12,5,6,13)           88.907          estimate D2E/DX2                !
 ! D57   D(12,5,6,14)          -28.085          estimate D2E/DX2                !
 ! D58   D(5,6,7,2)             55.4967         estimate D2E/DX2                !
 ! D59   D(5,6,7,8)            -65.4786         estimate D2E/DX2                !
 ! D60   D(5,6,7,34)           174.2306         estimate D2E/DX2                !
 ! D61   D(13,6,7,2)           179.1192         estimate D2E/DX2                !
 ! D62   D(13,6,7,8)            58.1439         estimate D2E/DX2                !
 ! D63   D(13,6,7,34)          -62.1469         estimate D2E/DX2                !
 ! D64   D(14,6,7,2)           -66.3628         estimate D2E/DX2                !
 ! D65   D(14,6,7,8)           172.6619         estimate D2E/DX2                !
 ! D66   D(14,6,7,34)           52.3712         estimate D2E/DX2                !
 ! D67   D(2,7,8,15)           -60.4017         estimate D2E/DX2                !
 ! D68   D(2,7,8,16)          -178.9376         estimate D2E/DX2                !
 ! D69   D(2,7,8,22)            61.0128         estimate D2E/DX2                !
 ! D70   D(6,7,8,15)            58.5651         estimate D2E/DX2                !
 ! D71   D(6,7,8,16)           -59.9709         estimate D2E/DX2                !
 ! D72   D(6,7,8,22)           179.9796         estimate D2E/DX2                !
 ! D73   D(34,7,8,15)          179.5197         estimate D2E/DX2                !
 ! D74   D(34,7,8,16)           60.9838         estimate D2E/DX2                !
 ! D75   D(34,7,8,22)          -59.0658         estimate D2E/DX2                !
 ! D76   D(2,7,34,35)           56.4558         estimate D2E/DX2                !
 ! D77   D(2,7,34,36)          -63.6576         estimate D2E/DX2                !
 ! D78   D(2,7,34,37)          176.2248         estimate D2E/DX2                !
 ! D79   D(6,7,34,35)          -61.5345         estimate D2E/DX2                !
 ! D80   D(6,7,34,36)          178.3522         estimate D2E/DX2                !
 ! D81   D(6,7,34,37)           58.2345         estimate D2E/DX2                !
 ! D82   D(8,7,34,35)          177.8084         estimate D2E/DX2                !
 ! D83   D(8,7,34,36)           57.6951         estimate D2E/DX2                !
 ! D84   D(8,7,34,37)          -62.4225         estimate D2E/DX2                !
 ! D85   D(7,8,22,23)         -177.806          estimate D2E/DX2                !
 ! D86   D(15,8,22,23)         -55.4805         estimate D2E/DX2                !
 ! D87   D(16,8,22,23)          63.4421         estimate D2E/DX2                !
 ! D88   D(3,17,21,24)         175.6621         estimate D2E/DX2                !
 ! D89   D(18,17,21,24)        -64.7814         estimate D2E/DX2                !
 ! D90   D(19,17,21,24)         55.5727         estimate D2E/DX2                !
 ! D91   D(17,21,24,31)       -179.6692         estimate D2E/DX2                !
 ! D92   D(17,21,24,32)         61.0228         estimate D2E/DX2                !
 ! D93   D(17,21,24,33)        -60.335          estimate D2E/DX2                !
 ! D94   D(8,22,23,28)          60.4939         estimate D2E/DX2                !
 ! D95   D(8,22,23,29)         -61.0989         estimate D2E/DX2                !
 ! D96   D(8,22,23,30)         179.6567         estimate D2E/DX2                !
 --------------------------------------------------------------------------------
 Trust Radius=3.00D-01 FncErr=1.00D-07 GrdErr=1.00D-06 EigMax=2.50D+02 EigMin=1.00D-04
 Number of steps in this run=    214 maximum allowed number of steps=    222.
 GradGradGradGradGradGradGradGradGradGradGradGradGradGradGradGradGradGrad

 Leave Link  103 at Fri Jan 10 02:06:46 2025, MaxMem=  4026531840 cpu:               0.4 elap:               0.0
 (Enter /usr/local/intel/g16/l202.exe)
                          Input orientation:                          
 ---------------------------------------------------------------------
 Center     Atomic      Atomic             Coordinates (Angstroms)
 Number     Number       Type             X           Y           Z
 ---------------------------------------------------------------------
      1          8           0       -0.189288    0.101781   -2.062245
      2          7           0       -0.226891   -0.285758   -0.801784
      3          6           0        1.087087   -0.519003   -0.132969
      4          6           0        0.879937   -0.693977    1.383278
      5          6           0       -0.175296   -1.764221    1.750836
      6          6           0       -1.283853   -1.930544    0.680969
      7          6           0       -1.528706   -0.672232   -0.184180
      8          6           0       -2.083377    0.467988    0.697433
      9          1           0        0.602224    0.277340    1.809260
     10          1           0        1.849275   -0.944283    1.820027
     11          1           0       -0.620515   -1.495736    2.715623
     12          1           0        0.313556   -2.733022    1.898454
     13          1           0       -2.228583   -2.219918    1.155982
     14          1           0       -1.020507   -2.743184   -0.005833
     15          1           0       -1.391548    0.713829    1.515602
     16          1           0       -3.033166    0.127201    1.144765
     17          6           0        1.933328    0.743276   -0.396373
     18          1           0        1.381278    1.633774   -0.056280
     19          1           0        2.128834    0.842746   -1.471637
     20          6           0        1.779321   -1.748448   -0.757949
     21          8           0        3.170665    0.603121    0.338297
     22          8           0       -2.305488    1.630532   -0.119823
     23          6           0       -2.778318    2.772368    0.621238
     24          6           0        4.100035    1.678593    0.097591
     25          1           0        2.809525   -1.804002   -0.395407
     26          1           0        1.787717   -1.650853   -1.847714
     27          1           0        1.261588   -2.676870   -0.495973
     28          1           0       -2.053583    3.076504    1.391660
     29          1           0       -3.744335    2.563972    1.105302
     30          1           0       -2.900951    3.580790   -0.099764
     31          1           0        4.988454    1.464850    0.693106
     32          1           0        3.676884    2.646035    0.405170
     33          1           0        4.375169    1.734018   -0.965551
     34          6           0       -2.537415   -0.982489   -1.300900
     35          1           0       -2.147979   -1.761808   -1.962084
     36          1           0       -2.734623   -0.090684   -1.894870
     37          1           0       -3.474058   -1.331730   -0.851019
 ---------------------------------------------------------------------
                    Distance matrix (angstroms):
                    1          2          3          4          5
     1  O    0.000000
     2  N    1.319228   0.000000
     3  C    2.395123   1.492734   0.000000
     4  C    3.694334   2.483185   1.540303   0.000000
     5  C    4.245203   2.950319   2.587064   1.547268   0.000000
     6  C    3.585197   2.453782   2.876856   2.589271   1.549573
     7  C    2.433159   1.491817   2.620778   2.873840   2.601624
     8  C    3.367121   2.502464   3.422800   3.256037   3.119806
     9  H    3.955485   2.796795   2.154416   1.096377   2.185388
    10  H    4.507996   3.408521   2.139156   1.092254   2.185400
    11  H    5.056287   3.740473   3.461848   2.160860   1.095955
    12  H    4.896539   3.684083   3.102726   2.178049   1.095145
    13  H    4.461614   3.403027   3.943117   3.470311   2.185749
    14  H    3.607434   2.702278   3.066773   3.120988   2.181430
    15  H    3.823744   2.779546   3.222001   2.675644   2.770440
    16  H    4.286397   3.440170   4.361957   4.005446   3.480262
    17  C    2.773471   2.426894   1.542353   2.518429   3.917186
    18  H    2.972806   2.612774   2.174139   2.782462   4.151501
    19  H    2.504304   2.696602   2.175231   3.474450   4.742323
    20  C    2.999993   2.483198   1.543154   2.550618   3.180374
    21  O    4.159715   3.692327   2.412996   2.832293   4.335323
    22  O    3.253980   2.908230   4.016247   4.220141   4.422831
    23  C    4.586523   4.229291   5.132573   5.096968   5.350921
    24  C    5.054653   4.836304   3.736367   4.201322   5.732769
    25  H    3.924696   3.419068   2.164922   2.849418   3.676561
    26  H    2.650717   2.648792   2.170787   3.489840   4.100711
    27  H    3.504162   2.833109   2.195134   2.758461   2.818814
    28  H    4.924838   4.410534   5.011584   4.777252   5.204766
    29  H    5.360420   4.912265   5.863505   5.663514   5.646947
    30  H    4.827831   4.753275   5.719602   5.896453   6.278778
    31  H    6.021539   5.700802   4.454070   4.692205   6.181424
    32  H    5.244869   5.029076   4.124816   4.464895   6.008366
    33  H    4.970030   5.028446   4.071950   4.860947   6.350052
    34  C    2.696106   2.464360   3.836130   4.355037   3.937487
    35  H    2.705451   2.686187   3.918658   4.636808   4.204433
    36  H    2.558083   2.742555   4.230038   4.916834   4.758367
    37  H    3.783086   3.411829   4.688301   4.935188   4.223568
                    6          7          8          9         10
     6  C    0.000000
     7  C    1.546540   0.000000
     8  C    2.528333   1.544346   0.000000
     9  H    3.115298   3.068608   2.912895   0.000000
    10  H    3.476587   3.937209   4.326717   1.745742   0.000000
    11  H    2.183779   3.148305   3.173211   2.336746   2.684410
    12  H    2.162858   3.460946   4.175429   3.025486   2.358849
    13  H    1.096307   2.163607   2.730603   3.830997   4.324017
    14  H    1.096098   2.139840   3.454837   3.879611   3.847786
    15  H    2.775053   2.197552   1.099302   2.062010   3.653073
    16  H    2.740350   2.160692   1.103785   3.698669   5.044035
    17  C    4.319749   3.746247   4.172064   2.617967   2.786996
    18  H    4.511189   3.715108   3.732422   2.434559   3.222720
    19  H    4.896048   4.162968   4.752687   3.662582   3.755886
    20  C    3.389200   3.525691   4.685207   3.475620   2.701395
    21  O    5.136109   4.897305   5.268035   2.977710   2.517152
    22  O    3.790286   2.431101   1.438315   3.742630   5.258778
    23  C    4.935015   3.751733   2.408094   4.366306   6.055180
    24  C    6.507876   6.106431   6.329294   4.138599   3.861630
    25  H    4.234423   4.488404   5.504246   3.750296   2.563073
    26  H    3.988359   3.837148   5.094372   4.300788   3.735687
    27  H    2.901976   3.449859   4.743748   3.804762   2.951456
    28  H    5.115476   4.100218   2.699480   3.881111   5.619833
    29  H    5.141469   4.128534   2.705233   4.961534   6.641322
    30  H    5.796495   4.469718   3.315643   5.179709   6.835681
    31  H    7.132369   6.914487   7.141747   4.679209   4.114404
    32  H    6.755002   6.201322   6.165218   4.127435   4.269937
    33  H    6.940070   6.423108   6.788311   4.904753   4.616588
    34  C    2.529433   1.536495   2.510651   4.595389   5.383744
    35  H    2.785842   2.175228   3.471195   5.093602   5.563340
    36  H    3.482063   2.172302   2.730617   4.999057   5.961645
    37  H    2.739081   2.159631   2.751487   5.126623   5.968457
                   11         12         13         14         15
    11  H    0.000000
    12  H    1.752464   0.000000
    13  H    2.354316   2.697594   0.000000
    14  H    3.020338   2.325110   1.755867   0.000000
    15  H    2.629966   3.864549   3.071942   3.795178   0.000000
    16  H    3.304906   4.466483   2.481219   3.689686   1.782291
    17  C    4.606496   4.469289   5.339647   4.586182   3.835533
    18  H    4.635133   4.902032   5.417713   4.992883   3.317480
    19  H    5.528161   5.238212   5.938971   4.992577   4.618799
    20  C    4.229513   3.189723   4.466398   3.064998   4.613703
    21  O    4.942664   4.661224   6.147360   5.374207   4.712970
    22  O    4.544496   5.474800   4.057038   4.559996   2.085724
    23  C    5.221041   6.442071   5.050849   5.822751   2.638295
    24  C    6.262112   6.086286   7.507995   6.766296   5.753174
    25  H    4.640982   3.514931   5.287942   3.962698   5.257418
    26  H    5.162140   4.168695   5.047444   3.531548   5.197244
    27  H    3.905347   2.575888   3.888323   2.335079   4.752095
    28  H    4.971111   6.293710   5.304550   6.073632   2.456804
    29  H    5.369601   6.719651   5.018533   6.067929   3.021090
    30  H    6.236819   7.361396   5.973039   6.598298   3.620383
    31  H    6.657040   6.397630   8.116489   7.369103   6.476493
    32  H    6.400008   6.517371   7.688677   7.160872   5.536739
    33  H    6.995657   6.682340   7.983987   7.076702   6.360183
    34  C    4.479998   4.629068   2.768190   2.660499   3.481837
    35  H    4.927969   4.680402   3.152570   2.461952   4.335351
    36  H    5.263105   5.537387   3.754652   3.680001   3.752654
    37  H    4.570617   4.885616   2.523517   2.954057   3.757932
                   16         17         18         19         20
    16  H    0.000000
    17  C    5.236479   0.000000
    18  H    4.816595   1.101549   0.000000
    19  H    5.831278   1.097410   1.785441   0.000000
    20  C    5.504399   2.522527   3.477097   2.710313   0.000000
    21  O    6.274106   1.445817   2.102342   2.102069   2.944057
    22  O    2.094923   4.339500   3.687315   4.702257   5.339511
    23  C    2.708493   5.229948   4.365509   5.673069   6.565973
    24  C    7.374683   2.411107   2.723477   2.654572   4.226378
    25  H    6.343399   2.693761   3.738074   2.937156   1.093546
    26  H    5.946202   2.803471   3.763403   2.544765   1.094159
    27  H    5.385141   3.486912   4.334663   3.753896   1.094827
    28  H    3.117520   4.953431   3.997033   5.539021   6.526265
    29  H    2.538734   6.148644   5.337270   6.640583   7.251169
    30  H    3.673365   5.613352   4.704280   5.888774   7.123127
    31  H    8.144918   3.322864   3.688066   3.640131   4.767534
    32  H    7.205296   2.702397   2.550964   3.028319   4.925959
    33  H    7.868845   2.695945   3.130528   2.469111   4.348459
    34  C    2.731018   4.876882   4.873404   5.013433   4.417658
    35  H    3.742248   5.038250   5.255257   5.031438   4.107774
    36  H    3.062023   4.973002   4.826470   4.970275   4.941302
    37  H    2.511179   5.809662   5.744572   6.042012   5.270703
                   21         22         23         24         25
    21  O    0.000000
    22  O    5.590501   0.000000
    23  C    6.338461   1.441017   0.000000
    24  C    1.441634   6.409392   6.984432   0.000000
    25  H    2.542240   6.167279   7.293882   3.746589   0.000000
    26  H    3.430975   5.523352   6.819772   4.496247   1.782342
    27  H    3.885733   5.605286   6.874823   5.232510   1.779922
    28  H    5.875369   2.106863   1.100586   6.441722   7.117778
    29  H    7.228448   2.107729   1.100425   7.958236   8.017756
    30  H    6.776646   2.039236   1.090151   7.257486   7.854484
    31  H    2.042749   7.340974   7.876390   1.090694   4.076516
    32  H    2.105761   6.090619   6.460052   1.099821   4.603918
    33  H    2.104704   6.734771   7.400571   1.099564   3.910740
    34  C    6.146812   2.876910   4.225115   7.286486   5.484940
    35  H    6.258803   3.863509   5.256390   7.424035   5.199337
    36  H    6.351443   2.509489   3.811794   7.335720   5.993448
    37  H    7.022141   3.267292   4.415339   8.205412   6.317756
                   26         27         28         29         30
    26  H    0.000000
    27  H    1.776718   0.000000
    28  H    6.899060   6.903248   0.000000
    29  H    7.555703   7.422248   1.789786   0.000000
    30  H    7.239408   7.526089   1.787927   1.788127   0.000000
    31  H    5.138880   5.697129   7.257802   8.811332   8.206617
    32  H    5.206504   5.914307   5.830670   7.454623   6.663080
    33  H    4.350916   5.419486   6.977648   8.420428   7.556592
    34  C    4.410497   4.236893   4.894834   4.452398   4.732695
    35  H    3.938920   3.822560   5.887765   5.538012   5.707763
    36  H    4.784131   4.961348   4.614778   4.131313   4.090207
    37  H    5.364841   4.935768   5.145861   4.367692   5.002568
                   31         32         33         34         35
    31  H    0.000000
    32  H    1.788385   0.000000
    33  H    1.788774   1.788366   0.000000
    34  C    8.161142   7.395564   7.434762   0.000000
    35  H    8.269827   7.678672   7.467619   1.093692   0.000000
    36  H    8.292359   7.340793   7.398805   1.089499   1.772378
    37  H    9.045402   8.278683   8.427473   1.096204   1.782672
                   36         37
    36  H    0.000000
    37  H    1.782297   0.000000
 Stoichiometry    C11H22NO3(2)
 Framework group  C1[X(C11H22NO3)]
 Deg. of freedom   105
 Full point group                 C1      NOp   1
 Largest Abelian subgroup         C1      NOp   1
 Largest concise Abelian subgroup C1      NOp   1
                         Standard orientation:                         
 ---------------------------------------------------------------------
 Center     Atomic      Atomic             Coordinates (Angstroms)
 Number     Number       Type             X           Y           Z
 ---------------------------------------------------------------------
      1          8           0        0.189288    0.101781    2.062245
      2          7           0        0.226891   -0.285758    0.801784
      3          6           0       -1.087087   -0.519003    0.132969
      4          6           0       -0.879937   -0.693977   -1.383278
      5          6           0        0.175296   -1.764221   -1.750836
      6          6           0        1.283853   -1.930544   -0.680969
      7          6           0        1.528706   -0.672232    0.184180
      8          6           0        2.083377    0.467988   -0.697433
      9          1           0       -0.602224    0.277340   -1.809260
     10          1           0       -1.849275   -0.944283   -1.820027
     11          1           0        0.620515   -1.495736   -2.715623
     12          1           0       -0.313556   -2.733022   -1.898454
     13          1           0        2.228583   -2.219918   -1.155982
     14          1           0        1.020507   -2.743184    0.005833
     15          1           0        1.391548    0.713829   -1.515602
     16          1           0        3.033166    0.127201   -1.144765
     17          6           0       -1.933328    0.743276    0.396373
     18          1           0       -1.381278    1.633774    0.056280
     19          1           0       -2.128834    0.842746    1.471637
     20          6           0       -1.779321   -1.748448    0.757949
     21          8           0       -3.170665    0.603121   -0.338297
     22          8           0        2.305488    1.630532    0.119823
     23          6           0        2.778318    2.772368   -0.621238
     24          6           0       -4.100035    1.678593   -0.097591
     25          1           0       -2.809525   -1.804002    0.395407
     26          1           0       -1.787717   -1.650853    1.847714
     27          1           0       -1.261588   -2.676870    0.495973
     28          1           0        2.053583    3.076504   -1.391660
     29          1           0        3.744335    2.563972   -1.105302
     30          1           0        2.900951    3.580790    0.099764
     31          1           0       -4.988454    1.464851   -0.693106
     32          1           0       -3.676884    2.646035   -0.405170
     33          1           0       -4.375169    1.734018    0.965551
     34          6           0        2.537415   -0.982489    1.300900
     35          1           0        2.147979   -1.761808    1.962084
     36          1           0        2.734623   -0.090684    1.894870
     37          1           0        3.474058   -1.331730    0.851019
 ---------------------------------------------------------------------
 Rotational constants (GHZ):           0.7863893           0.4205866           0.3630623
 Leave Link  202 at Fri Jan 10 02:06:46 2025, MaxMem=  4026531840 cpu:               0.1 elap:               0.0
 (Enter /usr/local/intel/g16/l301.exe)
 Standard basis: def2TZVP (5D, 7F)
 Ernie: Thresh=  0.10000D-02 Tol=  0.10000D-05 Strict=F.
 There are   672 symmetry adapted cartesian basis functions of A   symmetry.
 There are   597 symmetry adapted basis functions of A   symmetry.
   597 basis functions,   941 primitive gaussians,   672 cartesian basis functions
    60 alpha electrons       59 beta electrons
       nuclear repulsion energy      1160.1224304254 Hartrees.
 IExCor= 4336 DFT=T Ex+Corr=M062X ExCW=0 ScaHFX=  0.540000
 ScaDFX=  1.000000  1.000000  1.000000  1.000000 ScalE2=  1.000000  1.000000
 IRadAn=      5 IRanWt=     -1 IRanGd=            0 ICorTp=0 IEmpDi=  4
 NAtoms=   37 NActive=   37 NUniq=   37 SFac= 1.00D+00 NAtFMM=   60 NAOKFM=F Big=F
 Integral buffers will be    131072 words long.
 Raffenetti 2 integral format.
 Two-electron integral symmetry is turned on.
 Leave Link  301 at Fri Jan 10 02:06:46 2025, MaxMem=  4026531840 cpu:               1.4 elap:               0.1
 (Enter /usr/local/intel/g16/l302.exe)
 NPDir=0 NMtPBC=     1 NCelOv=     1 NCel=       1 NClECP=     1 NCelD=      1
         NCelK=      1 NCelE2=     1 NClLst=     1 CellRange=     0.0.
 One-electron integrals computed using PRISM.
 One-electron integral symmetry used in STVInt
   1 Symmetry operations used in ECPInt.
 ECPInt:  NShTT=   32131 NPrTT=   93924 LenC2=   29987 LenP2D=   65368.
 LDataN:  DoStor=T MaxTD1= 6 Len=  172
 NBasis=   597 RedAO= T EigKep=  2.99D-05  NBF=   597
 NBsUse=   597 1.00D-06 EigRej= -1.00D+00 NBFU=   597
 Precomputing XC quadrature grid using
 IXCGrd= 4 IRadAn=           5 IRanWt=          -1 IRanGd=           0 AccXCQ= 0.00D+00.
 Generated NRdTot=       0 NPtTot=           0 NUsed=           0 NTot=          32
 NSgBfM=   665   665   665   665   665 MxSgAt=    37 MxSgA2=    37.
 Leave Link  302 at Fri Jan 10 02:06:48 2025, MaxMem=  4026531840 cpu:              25.5 elap:               1.3
 (Enter /usr/local/intel/g16/l303.exe)
 DipDrv:  MaxL=1.
 Leave Link  303 at Fri Jan 10 02:06:48 2025, MaxMem=  4026531840 cpu:               3.6 elap:               0.2
 (Enter /usr/local/intel/g16/l401.exe)
 ExpMin= 9.52D-02 ExpMax= 2.70D+04 ExpMxC= 9.22D+02 IAcc=3 IRadAn=         5 AccDes= 0.00D+00
 Harris functional with IExCor= 1009 and IRadAn=       5 diagonalized for initial guess.
 HarFok:  IExCor= 1009 AccDes= 0.00D+00 IRadAn=         5 IDoV= 1 UseB2=F ITyADJ=14
 ICtDFT=  3500011 ScaDFX=  1.000000  1.000000  1.000000  1.000000
 FoFCou: FMM=F IPFlag=           0 FMFlag=      100000 FMFlg1=           0
         NFxFlg=           0 DoJE=T BraDBF=F KetDBF=T FulRan=T
         wScrn=  0.000000 ICntrl=       500 IOpCl=  0 I1Cent=   200000004 NGrid=           0
         NMat0=    1 NMatS0=      1 NMatT0=    0 NMatD0=    1 NMtDS0=    0 NMtDT0=    0
 Petite list used in FoFCou.
 Harris En= -712.390617450693    
 JPrj=0 DoOrth=F DoCkMO=F.
 Initial guess <Sx>= 0.0000 <Sy>= 0.0000 <Sz>= 0.5000 <S**2>= 0.7500 S= 0.5000
 Leave Link  401 at Fri Jan 10 02:06:52 2025, MaxMem=  4026531840 cpu:              78.5 elap:               4.0
 (Enter /usr/local/intel/g16/l502.exe)
 Integral symmetry usage will be decided dynamically.
 UHF open shell SCF:
 Using DIIS extrapolation, IDIIS=  1040.
 NGot=  4026531840 LenX=  4025608186 LenY=  4025155930
 Requested convergence on RMS density matrix=1.00D-08 within 128 cycles.
 Requested convergence on MAX density matrix=1.00D-06.
 Requested convergence on             energy=1.00D-06.
 No special actions if energy rises.
 Fock matrices will be formed incrementally for  20 cycles.
 Integral accuracy reduced to 1.0D-05 until final iterations.

 Cycle   1  Pass 0  IDiag  1:
 FoFJK:  IHMeth= 1 ICntrl=       0 DoSepK=F KAlg= 0 I1Cent=           0 FoldK=F
 IRaf= 880000000 NMat=       1 IRICut=       1 DoRegI=T DoRafI=F ISym2E= 0 IDoP0=0 IntGTp=1.
 FoFCou: FMM=F IPFlag=           0 FMFlag=      100000 FMFlg1=           0
         NFxFlg=           0 DoJE=F BraDBF=F KetDBF=F FulRan=T
         wScrn=  0.000000 ICntrl=         0 IOpCl=  1 I1Cent=           0 NGrid=           0
         NMat0=    1 NMatS0=      1 NMatT0=    0 NMatD0=    1 NMtDS0=    0 NMtDT0=    0
 Symmetry not used in FoFCou.
 E= -712.248303012571    
 DIIS: error= 2.04D-02 at cycle   1 NSaved=   1.
 NSaved= 1 IEnMin= 1 EnMin= -712.248303012571     IErMin= 1 ErrMin= 2.04D-02
 ErrMax= 2.04D-02  0.00D+00 EMaxC= 1.00D-01 BMatC= 2.22D+00 BMatP= 2.22D+00
 IDIUse=3 WtCom= 7.96D-01 WtEn= 2.04D-01
 Coeff-Com:  0.100D+01
 Coeff-En:   0.100D+01
 Coeff:      0.100D+01
 Gap=     0.356 Goal=   None    Shift=    0.000
 Gap=     0.224 Goal=   None    Shift=    0.000
 GapD=    0.224 DampG=1.000 DampE=0.500 DampFc=0.5000 IDamp=-1.
 Damping current iteration by 5.00D-01
 RMSDP=2.42D-03 MaxDP=2.05D-01              OVMax= 1.48D-01

 Cycle   2  Pass 0  IDiag  1:
 RMSU=  1.21D-03    CP:  9.87D-01
 E= -712.468994167047     Delta-E=       -0.220691154475 Rises=F Damp=T
 DIIS: error= 5.89D-03 at cycle   2 NSaved=   2.
 NSaved= 2 IEnMin= 2 EnMin= -712.468994167047     IErMin= 2 ErrMin= 5.89D-03
 ErrMax= 5.89D-03  0.00D+00 EMaxC= 1.00D-01 BMatC= 2.03D-01 BMatP= 2.22D+00
 IDIUse=3 WtCom= 9.41D-01 WtEn= 5.89D-02
 Coeff-Com: -0.650D-01 0.107D+01
 Coeff-En:   0.000D+00 0.100D+01
 Coeff:     -0.612D-01 0.106D+01
 Gap=     0.332 Goal=   None    Shift=    0.000
 Gap=     0.321 Goal=   None    Shift=    0.000
 RMSDP=8.50D-04 MaxDP=3.82D-02 DE=-2.21D-01 OVMax= 1.24D-01

 Cycle   3  Pass 0  IDiag  1:
 RMSU=  8.37D-04    CP:  9.75D-01  1.10D+00
 E= -712.672436322952     Delta-E=       -0.203442155905 Rises=F Damp=F
 DIIS: error= 5.70D-03 at cycle   3 NSaved=   3.
 NSaved= 3 IEnMin= 3 EnMin= -712.672436322952     IErMin= 3 ErrMin= 5.70D-03
 ErrMax= 5.70D-03  0.00D+00 EMaxC= 1.00D-01 BMatC= 1.18D-01 BMatP= 2.03D-01
 IDIUse=3 WtCom= 9.43D-01 WtEn= 5.70D-02
 Coeff-Com: -0.987D-01 0.484D+00 0.615D+00
 Coeff-En:   0.000D+00 0.000D+00 0.100D+01
 Coeff:     -0.930D-01 0.456D+00 0.637D+00
 Gap=     0.317 Goal=   None    Shift=    0.000
 Gap=     0.295 Goal=   None    Shift=    0.000
 RMSDP=3.30D-04 MaxDP=3.10D-02 DE=-2.03D-01 OVMax= 8.50D-02

 Cycle   4  Pass 0  IDiag  1:
 RMSU=  2.93D-04    CP:  9.78D-01  1.20D+00  8.99D-01
 E= -712.687652388690     Delta-E=       -0.015216065739 Rises=F Damp=F
 DIIS: error= 3.35D-03 at cycle   4 NSaved=   4.
 NSaved= 4 IEnMin= 4 EnMin= -712.687652388690     IErMin= 4 ErrMin= 3.35D-03
 ErrMax= 3.35D-03  0.00D+00 EMaxC= 1.00D-01 BMatC= 3.39D-02 BMatP= 1.18D-01
 IDIUse=3 WtCom= 9.66D-01 WtEn= 3.35D-02
 Coeff-Com: -0.344D-01 0.930D-01 0.377D+00 0.564D+00
 Coeff-En:   0.000D+00 0.000D+00 0.240D+00 0.760D+00
 Coeff:     -0.332D-01 0.899D-01 0.373D+00 0.571D+00
 Gap=     0.310 Goal=   None    Shift=    0.000
 Gap=     0.305 Goal=   None    Shift=    0.000
 RMSDP=1.81D-04 MaxDP=1.65D-02 DE=-1.52D-02 OVMax= 1.95D-02

 Cycle   5  Pass 0  IDiag  1:
 RMSU=  1.10D-04    CP:  9.75D-01  1.17D+00  9.57D-01  5.69D-01
 E= -712.693880417349     Delta-E=       -0.006228028658 Rises=F Damp=F
 DIIS: error= 4.07D-04 at cycle   5 NSaved=   5.
 NSaved= 5 IEnMin= 5 EnMin= -712.693880417349     IErMin= 5 ErrMin= 4.07D-04
 ErrMax= 4.07D-04  0.00D+00 EMaxC= 1.00D-01 BMatC= 7.19D-04 BMatP= 3.39D-02
 IDIUse=3 WtCom= 9.96D-01 WtEn= 4.07D-03
 Coeff-Com: -0.711D-02 0.121D-01 0.122D+00 0.215D+00 0.657D+00
 Coeff-En:   0.000D+00 0.000D+00 0.000D+00 0.000D+00 0.100D+01
 Coeff:     -0.708D-02 0.121D-01 0.122D+00 0.214D+00 0.659D+00
 Gap=     0.306 Goal=   None    Shift=    0.000
 Gap=     0.305 Goal=   None    Shift=    0.000
 RMSDP=3.57D-05 MaxDP=2.91D-03 DE=-6.23D-03 OVMax= 8.67D-03

 Cycle   6  Pass 0  IDiag  1:
 RMSU=  2.97D-05    CP:  9.75D-01  1.16D+00  9.74D-01  6.14D-01  9.66D-01
 E= -712.694057012194     Delta-E=       -0.000176594845 Rises=F Damp=F
 DIIS: error= 2.44D-04 at cycle   6 NSaved=   6.
 NSaved= 6 IEnMin= 6 EnMin= -712.694057012194     IErMin= 6 ErrMin= 2.44D-04
 ErrMax= 2.44D-04  0.00D+00 EMaxC= 1.00D-01 BMatC= 1.83D-04 BMatP= 7.19D-04
 IDIUse=3 WtCom= 9.98D-01 WtEn= 2.44D-03
 Coeff-Com:  0.329D-02-0.112D-01-0.303D-02-0.990D-02 0.281D+00 0.740D+00
 Coeff-En:   0.000D+00 0.000D+00 0.000D+00 0.000D+00 0.000D+00 0.100D+01
 Coeff:      0.329D-02-0.112D-01-0.302D-02-0.988D-02 0.280D+00 0.740D+00
 Gap=     0.308 Goal=   None    Shift=    0.000
 Gap=     0.306 Goal=   None    Shift=    0.000
 RMSDP=2.89D-05 MaxDP=3.02D-03 DE=-1.77D-04 OVMax= 3.71D-03

 Cycle   7  Pass 0  IDiag  1:
 RMSU=  1.37D-05    CP:  9.75D-01  1.16D+00  9.84D-01  5.94D-01  1.14D+00
                    CP:  1.31D+00
 E= -712.694112388751     Delta-E=       -0.000055376557 Rises=F Damp=F
 DIIS: error= 1.03D-04 at cycle   7 NSaved=   7.
 NSaved= 7 IEnMin= 7 EnMin= -712.694112388751     IErMin= 7 ErrMin= 1.03D-04
 ErrMax= 1.03D-04  0.00D+00 EMaxC= 1.00D-01 BMatC= 2.93D-05 BMatP= 1.83D-04
 IDIUse=3 WtCom= 9.99D-01 WtEn= 1.03D-03
 Coeff-Com:  0.274D-02-0.559D-02-0.244D-01-0.603D-01-0.728D-01 0.116D+00
 Coeff-Com:  0.104D+01
 Coeff-En:   0.000D+00 0.000D+00 0.000D+00 0.000D+00 0.000D+00 0.000D+00
 Coeff-En:   0.100D+01
 Coeff:      0.274D-02-0.559D-02-0.244D-01-0.602D-01-0.727D-01 0.116D+00
 Coeff:      0.104D+01
 Gap=     0.308 Goal=   None    Shift=    0.000
 Gap=     0.306 Goal=   None    Shift=    0.000
 RMSDP=2.16D-05 MaxDP=2.49D-03 DE=-5.54D-05 OVMax= 4.01D-03

 Cycle   8  Pass 0  IDiag  1:
 RMSU=  6.99D-06    CP:  9.74D-01  1.15D+00  9.91D-01  5.79D-01  1.26D+00
                    CP:  1.61D+00  1.45D+00
 E= -712.694129657070     Delta-E=       -0.000017268319 Rises=F Damp=F
 DIIS: error= 5.85D-05 at cycle   8 NSaved=   8.
 NSaved= 8 IEnMin= 8 EnMin= -712.694129657070     IErMin= 8 ErrMin= 5.85D-05
 ErrMax= 5.85D-05  0.00D+00 EMaxC= 1.00D-01 BMatC= 8.46D-06 BMatP= 2.93D-05
 IDIUse=1 WtCom= 1.00D+00 WtEn= 0.00D+00
 Coeff-Com:  0.693D-03-0.689D-03-0.877D-02-0.271D-01-0.777D-01-0.935D-01
 Coeff-Com:  0.462D+00 0.745D+00
 Coeff:      0.693D-03-0.689D-03-0.877D-02-0.271D-01-0.777D-01-0.935D-01
 Coeff:      0.462D+00 0.745D+00
 Gap=     0.308 Goal=   None    Shift=    0.000
 Gap=     0.306 Goal=   None    Shift=    0.000
 RMSDP=8.58D-06 MaxDP=1.03D-03 DE=-1.73D-05 OVMax= 1.52D-03

 Cycle   9  Pass 0  IDiag  1:
 RMSU=  3.12D-06    CP:  9.74D-01  1.15D+00  9.93D-01  5.71D-01  1.30D+00
                    CP:  1.72D+00  1.75D+00  1.22D+00
 E= -712.694132602731     Delta-E=       -0.000002945660 Rises=F Damp=F
 DIIS: error= 2.52D-05 at cycle   9 NSaved=   9.
 NSaved= 9 IEnMin= 9 EnMin= -712.694132602731     IErMin= 9 ErrMin= 2.52D-05
 ErrMax= 2.52D-05  0.00D+00 EMaxC= 1.00D-01 BMatC= 1.30D-06 BMatP= 8.46D-06
 IDIUse=1 WtCom= 1.00D+00 WtEn= 0.00D+00
 Coeff-Com: -0.505D-03 0.119D-02 0.579D-02 0.932D-02 0.801D-02-0.522D-01
 Coeff-Com: -0.193D+00 0.159D+00 0.106D+01
 Coeff:     -0.505D-03 0.119D-02 0.579D-02 0.932D-02 0.801D-02-0.522D-01
 Coeff:     -0.193D+00 0.159D+00 0.106D+01
 Gap=     0.308 Goal=   None    Shift=    0.000
 Gap=     0.306 Goal=   None    Shift=    0.000
 RMSDP=5.12D-06 MaxDP=6.24D-04 DE=-2.95D-06 OVMax= 8.68D-04

 Initial convergence to 1.0D-05 achieved.  Increase integral accuracy.
 Cycle  10  Pass 1  IDiag  1:
 E= -712.694141002370     Delta-E=       -0.000008399639 Rises=F Damp=F
 DIIS: error= 8.35D-05 at cycle   1 NSaved=   1.
 NSaved= 1 IEnMin= 1 EnMin= -712.694141002370     IErMin= 1 ErrMin= 8.35D-05
 ErrMax= 8.35D-05  0.00D+00 EMaxC= 1.00D-01 BMatC= 3.08D-05 BMatP= 3.08D-05
 IDIUse=1 WtCom= 1.00D+00 WtEn= 0.00D+00
 Coeff-Com:  0.100D+01
 Coeff:      0.100D+01
 Gap=     0.308 Goal=   None    Shift=    0.000
 Gap=     0.306 Goal=   None    Shift=    0.000
 RMSDP=5.12D-06 MaxDP=6.24D-04 DE=-8.40D-06 OVMax= 2.79D-04

 Cycle  11  Pass 1  IDiag  1:
 RMSU=  8.36D-05    CP:  1.00D+00
 E= -712.694144981165     Delta-E=       -0.000003978795 Rises=F Damp=F
 DIIS: error= 6.18D-06 at cycle   2 NSaved=   2.
 NSaved= 2 IEnMin= 2 EnMin= -712.694144981165     IErMin= 2 ErrMin= 6.18D-06
 ErrMax= 6.18D-06  0.00D+00 EMaxC= 1.00D-01 BMatC= 1.24D-07 BMatP= 3.08D-05
 IDIUse=1 WtCom= 1.00D+00 WtEn= 0.00D+00
 Coeff-Com: -0.118D-01 0.101D+01
 Coeff:     -0.118D-01 0.101D+01
 Gap=     0.308 Goal=   None    Shift=    0.000
 Gap=     0.306 Goal=   None    Shift=    0.000
 RMSDP=3.45D-06 MaxDP=2.30D-04 DE=-3.98D-06 OVMax= 1.56D-04

 Cycle  12  Pass 1  IDiag  1:
 RMSU=  1.52D-06    CP:  1.00D+00  1.04D+00
 E= -712.694144993801     Delta-E=       -0.000000012636 Rises=F Damp=F
 DIIS: error= 8.37D-06 at cycle   3 NSaved=   3.
 NSaved= 3 IEnMin= 3 EnMin= -712.694144993801     IErMin= 2 ErrMin= 6.18D-06
 ErrMax= 8.37D-06  0.00D+00 EMaxC= 1.00D-01 BMatC= 1.95D-07 BMatP= 1.24D-07
 IDIUse=1 WtCom= 1.00D+00 WtEn= 0.00D+00
 Coeff-Com: -0.104D-01 0.581D+00 0.430D+00
 Coeff:     -0.104D-01 0.581D+00 0.430D+00
 Gap=     0.308 Goal=   None    Shift=    0.000
 Gap=     0.306 Goal=   None    Shift=    0.000
 RMSDP=3.48D-07 MaxDP=2.29D-05 DE=-1.26D-08 OVMax= 3.69D-05

 Cycle  13  Pass 1  IDiag  1:
 RMSU=  3.44D-07    CP:  1.00D+00  1.04D+00  1.01D+00
 E= -712.694145027704     Delta-E=       -0.000000033903 Rises=F Damp=F
 DIIS: error= 2.22D-06 at cycle   4 NSaved=   4.
 NSaved= 4 IEnMin= 4 EnMin= -712.694145027704     IErMin= 4 ErrMin= 2.22D-06
 ErrMax= 2.22D-06  0.00D+00 EMaxC= 1.00D-01 BMatC= 6.68D-09 BMatP= 1.24D-07
 IDIUse=1 WtCom= 1.00D+00 WtEn= 0.00D+00
 Coeff-Com: -0.134D-02 0.291D-01 0.644D-01 0.908D+00
 Coeff:     -0.134D-02 0.291D-01 0.644D-01 0.908D+00
 Gap=     0.308 Goal=   None    Shift=    0.000
 Gap=     0.306 Goal=   None    Shift=    0.000
 RMSDP=2.77D-07 MaxDP=2.14D-05 DE=-3.39D-08 OVMax= 5.52D-05

 Cycle  14  Pass 1  IDiag  1:
 RMSU=  1.89D-07    CP:  1.00D+00  1.04D+00  1.11D+00  1.31D+00
 E= -712.694145031379     Delta-E=       -0.000000003675 Rises=F Damp=F
 DIIS: error= 1.94D-06 at cycle   5 NSaved=   5.
 NSaved= 5 IEnMin= 5 EnMin= -712.694145031379     IErMin= 5 ErrMin= 1.94D-06
 ErrMax= 1.94D-06  0.00D+00 EMaxC= 1.00D-01 BMatC= 7.06D-09 BMatP= 6.68D-09
 IDIUse=1 WtCom= 1.00D+00 WtEn= 0.00D+00
 Coeff-Com:  0.296D-02-0.189D+00-0.158D+00 0.577D+00 0.767D+00
 Coeff:      0.296D-02-0.189D+00-0.158D+00 0.577D+00 0.767D+00
 Gap=     0.308 Goal=   None    Shift=    0.000
 Gap=     0.306 Goal=   None    Shift=    0.000
 RMSDP=2.19D-07 MaxDP=1.60D-05 DE=-3.67D-09 OVMax= 2.49D-05

 Cycle  15  Pass 1  IDiag  1:
 RMSU=  1.28D-07    CP:  1.00D+00  1.04D+00  1.18D+00  1.71D+00  1.30D+00
 E= -712.694145033991     Delta-E=       -0.000000002612 Rises=F Damp=F
 DIIS: error= 5.14D-07 at cycle   6 NSaved=   6.
 NSaved= 6 IEnMin= 6 EnMin= -712.694145033991     IErMin= 6 ErrMin= 5.14D-07
 ErrMax= 5.14D-07  0.00D+00 EMaxC= 1.00D-01 BMatC= 5.76D-10 BMatP= 6.68D-09
 IDIUse=1 WtCom= 1.00D+00 WtEn= 0.00D+00
 Coeff-Com:  0.931D-03-0.477D-01-0.689D-01 0.413D-03 0.102D+00 0.101D+01
 Coeff:      0.931D-03-0.477D-01-0.689D-01 0.413D-03 0.102D+00 0.101D+01
 Gap=     0.308 Goal=   None    Shift=    0.000
 Gap=     0.306 Goal=   None    Shift=    0.000
 RMSDP=8.58D-08 MaxDP=7.60D-06 DE=-2.61D-09 OVMax= 1.89D-05

 Cycle  16  Pass 1  IDiag  1:
 RMSU=  3.79D-08    CP:  1.00D+00  1.04D+00  1.18D+00  1.84D+00  1.43D+00
                    CP:  1.40D+00
 E= -712.694145034412     Delta-E=       -0.000000000421 Rises=F Damp=F
 DIIS: error= 2.50D-07 at cycle   7 NSaved=   7.
 NSaved= 7 IEnMin= 7 EnMin= -712.694145034412     IErMin= 7 ErrMin= 2.50D-07
 ErrMax= 2.50D-07  0.00D+00 EMaxC= 1.00D-01 BMatC= 2.14D-10 BMatP= 5.76D-10
 IDIUse=1 WtCom= 1.00D+00 WtEn= 0.00D+00
 Coeff-Com: -0.233D-03 0.202D-01-0.268D-02-0.117D+00-0.152D+00 0.493D+00
 Coeff-Com:  0.759D+00
 Coeff:     -0.233D-03 0.202D-01-0.268D-02-0.117D+00-0.152D+00 0.493D+00
 Coeff:      0.759D+00
 Gap=     0.308 Goal=   None    Shift=    0.000
 Gap=     0.306 Goal=   None    Shift=    0.000
 RMSDP=3.95D-08 MaxDP=3.75D-06 DE=-4.21D-10 OVMax= 7.17D-06

 Cycle  17  Pass 1  IDiag  1:
 RMSU=  2.25D-08    CP:  1.00D+00  1.04D+00  1.17D+00  1.89D+00  1.44D+00
                    CP:  1.56D+00  1.27D+00
 E= -712.694145034517     Delta-E=       -0.000000000105 Rises=F Damp=F
 DIIS: error= 8.54D-08 at cycle   8 NSaved=   8.
 NSaved= 8 IEnMin= 8 EnMin= -712.694145034517     IErMin= 8 ErrMin= 8.54D-08
 ErrMax= 8.54D-08  0.00D+00 EMaxC= 1.00D-01 BMatC= 2.03D-11 BMatP= 2.14D-10
 IDIUse=1 WtCom= 1.00D+00 WtEn= 0.00D+00
 Coeff-Com: -0.201D-03 0.131D-01 0.674D-02-0.323D-01-0.680D-01 0.267D-01
 Coeff-Com:  0.237D+00 0.817D+00
 Coeff:     -0.201D-03 0.131D-01 0.674D-02-0.323D-01-0.680D-01 0.267D-01
 Coeff:      0.237D+00 0.817D+00
 Gap=     0.308 Goal=   None    Shift=    0.000
 Gap=     0.306 Goal=   None    Shift=    0.000
 RMSDP=1.86D-08 MaxDP=1.55D-06 DE=-1.05D-10 OVMax= 3.18D-06

 Cycle  18  Pass 1  IDiag  1:
 RMSU=  7.62D-09    CP:  1.00D+00  1.04D+00  1.17D+00  1.90D+00  1.41D+00
                    CP:  1.59D+00  1.47D+00  1.38D+00
 E= -712.694145034521     Delta-E=       -0.000000000004 Rises=F Damp=F
 DIIS: error= 4.01D-08 at cycle   9 NSaved=   9.
 NSaved= 9 IEnMin= 9 EnMin= -712.694145034521     IErMin= 9 ErrMin= 4.01D-08
 ErrMax= 4.01D-08  0.00D+00 EMaxC= 1.00D-01 BMatC= 4.89D-12 BMatP= 2.03D-11
 IDIUse=1 WtCom= 1.00D+00 WtEn= 0.00D+00
 Coeff-Com: -0.996D-05-0.557D-03 0.234D-02 0.194D-01 0.125D-01-0.110D+00
 Coeff-Com: -0.112D+00 0.256D+00 0.932D+00
 Coeff:     -0.996D-05-0.557D-03 0.234D-02 0.194D-01 0.125D-01-0.110D+00
 Coeff:     -0.112D+00 0.256D+00 0.932D+00
 Gap=     0.308 Goal=   None    Shift=    0.000
 Gap=     0.306 Goal=   None    Shift=    0.000
 RMSDP=1.23D-08 MaxDP=1.33D-06 DE=-4.32D-12 OVMax= 2.71D-06

 Cycle  19  Pass 1  IDiag  1:
 RMSU=  3.74D-09    CP:  1.00D+00  1.04D+00  1.16D+00  1.89D+00  1.38D+00
                    CP:  1.59D+00  1.59D+00  1.67D+00  1.40D+00
 E= -712.694145034523     Delta-E=       -0.000000000002 Rises=F Damp=F
 DIIS: error= 2.75D-08 at cycle  10 NSaved=  10.
 NSaved=10 IEnMin=10 EnMin= -712.694145034523     IErMin=10 ErrMin= 2.75D-08
 ErrMax= 2.75D-08  0.00D+00 EMaxC= 1.00D-01 BMatC= 1.09D-12 BMatP= 4.89D-12
 IDIUse=1 WtCom= 1.00D+00 WtEn= 0.00D+00
 Coeff-Com:  0.390D-04-0.290D-02-0.879D-03 0.126D-01 0.175D-01-0.360D-01
 Coeff-Com: -0.821D-01-0.990D-01 0.269D+00 0.922D+00
 Coeff:      0.390D-04-0.290D-02-0.879D-03 0.126D-01 0.175D-01-0.360D-01
 Coeff:     -0.821D-01-0.990D-01 0.269D+00 0.922D+00
 Gap=     0.308 Goal=   None    Shift=    0.000
 Gap=     0.306 Goal=   None    Shift=    0.000
 RMSDP=5.10D-09 MaxDP=5.42D-07 DE=-2.05D-12 OVMax= 1.75D-06

 SCF Done:  E(UM062X) =  -712.694145035     A.U. after   19 cycles
            NFock= 19  Conv=0.51D-08     -V/T= 2.0059
 <Sx>= 0.0000 <Sy>= 0.0000 <Sz>= 0.5000 <S**2>= 0.7562 S= 0.5031
 <L.S>=  0.00000000000    
 KE= 7.085080572771D+02 PE=-3.982207279036D+03 EE= 1.400882646299D+03
 Annihilation of the first spin contaminant:
 S**2 before annihilation     0.7562,   after     0.7500
 Leave Link  502 at Fri Jan 10 02:16:34 2025, MaxMem=  4026531840 cpu:           11634.2 elap:             581.9
 (Enter /usr/local/intel/g16/l601.exe)
 Copying SCF densities to generalized density rwf, IOpCl= 1 IROHF=0.

 **********************************************************************

            Population analysis using the SCF Density.

 **********************************************************************

 Orbital symmetries:
 Alpha Orbitals:
       Occupied  (A) (A) (A) (A) (A) (A) (A) (A) (A) (A) (A) (A)
                 (A) (A) (A) (A) (A) (A) (A) (A) (A) (A) (A) (A)
                 (A) (A) (A) (A) (A) (A) (A) (A) (A) (A) (A) (A)
                 (A) (A) (A) (A) (A) (A) (A) (A) (A) (A) (A) (A)
                 (A) (A) (A) (A) (A) (A) (A) (A) (A) (A) (A) (A)
       Virtual   (A) (A) (A) (A) (A) (A) (A) (A) (A) (A) (A) (A)
                 (A) (A) (A) (A) (A) (A) (A) (A) (A) (A) (A) (A)
                 (A) (A) (A) (A) (A) (A) (A) (A) (A) (A) (A) (A)
                 (A) (A) (A) (A) (A) (A) (A) (A) (A) (A) (A) (A)
                 (A) (A) (A) (A) (A) (A) (A) (A) (A) (A) (A) (A)
                 (A) (A) (A) (A) (A) (A) (A) (A) (A) (A) (A) (A)
                 (A) (A) (A) (A) (A) (A) (A) (A) (A) (A) (A) (A)
                 (A) (A) (A) (A) (A) (A) (A) (A) (A) (A) (A) (A)
                 (A) (A) (A) (A) (A) (A) (A) (A) (A) (A) (A) (A)
                 (A) (A) (A) (A) (A) (A) (A) (A) (A) (A) (A) (A)
                 (A) (A) (A) (A) (A) (A) (A) (A) (A) (A) (A) (A)
                 (A) (A) (A) (A) (A) (A) (A) (A) (A) (A) (A) (A)
                 (A) (A) (A) (A) (A) (A) (A) (A) (A) (A) (A) (A)
                 (A) (A) (A) (A) (A) (A) (A) (A) (A) (A) (A) (A)
                 (A) (A) (A) (A) (A) (A) (A) (A) (A) (A) (A) (A)
                 (A) (A) (A) (A) (A) (A) (A) (A) (A) (A) (A) (A)
                 (A) (A) (A) (A) (A) (A) (A) (A) (A) (A) (A) (A)
                 (A) (A) (A) (A) (A) (A) (A) (A) (A) (A) (A) (A)
                 (A) (A) (A) (A) (A) (A) (A) (A) (A) (A) (A) (A)
                 (A) (A) (A) (A) (A) (A) (A) (A) (A) (A) (A) (A)
                 (A) (A) (A) (A) (A) (A) (A) (A) (A) (A) (A) (A)
                 (A) (A) (A) (A) (A) (A) (A) (A) (A) (A) (A) (A)
                 (A) (A) (A) (A) (A) (A) (A) (A) (A) (A) (A) (A)
                 (A) (A) (A) (A) (A) (A) (A) (A) (A) (A) (A) (A)
                 (A) (A) (A) (A) (A) (A) (A) (A) (A) (A) (A) (A)
                 (A) (A) (A) (A) (A) (A) (A) (A) (A) (A) (A) (A)
                 (A) (A) (A) (A) (A) (A) (A) (A) (A) (A) (A) (A)
                 (A) (A) (A) (A) (A) (A) (A) (A) (A) (A) (A) (A)
                 (A) (A) (A) (A) (A) (A) (A) (A) (A) (A) (A) (A)
                 (A) (A) (A) (A) (A) (A) (A) (A) (A) (A) (A) (A)
                 (A) (A) (A) (A) (A) (A) (A) (A) (A) (A) (A) (A)
                 (A) (A) (A) (A) (A) (A) (A) (A) (A) (A) (A) (A)
                 (A) (A) (A) (A) (A) (A) (A) (A) (A) (A) (A) (A)
                 (A) (A) (A) (A) (A) (A) (A) (A) (A) (A) (A) (A)
                 (A) (A) (A) (A) (A) (A) (A) (A) (A) (A) (A) (A)
                 (A) (A) (A) (A) (A) (A) (A) (A) (A) (A) (A) (A)
                 (A) (A) (A) (A) (A) (A) (A) (A) (A) (A) (A) (A)
                 (A) (A) (A) (A) (A) (A) (A) (A) (A) (A) (A) (A)
                 (A) (A) (A) (A) (A) (A) (A) (A) (A) (A) (A) (A)
                 (A) (A) (A) (A) (A) (A) (A) (A) (A) (A) (A) (A)
                 (A) (A) (A) (A) (A) (A) (A) (A) (A) (A) (A) (A)
                 (A) (A) (A) (A) (A) (A) (A) (A) (A) (A) (A) (A)
                 (A) (A) (A) (A) (A) (A) (A) (A) (A) (A) (A) (A)
                 (A) (A) (A) (A) (A) (A) (A) (A) (A) (A) (A) (A)
                 (A) (A) (A) (A) (A) (A) (A) (A) (A)
 Beta  Orbitals:
       Occupied  (A) (A) (A) (A) (A) (A) (A) (A) (A) (A) (A) (A)
                 (A) (A) (A) (A) (A) (A) (A) (A) (A) (A) (A) (A)
                 (A) (A) (A) (A) (A) (A) (A) (A) (A) (A) (A) (A)
                 (A) (A) (A) (A) (A) (A) (A) (A) (A) (A) (A) (A)
                 (A) (A) (A) (A) (A) (A) (A) (A) (A) (A) (A)
       Virtual   (A) (A) (A) (A) (A) (A) (A) (A) (A) (A) (A) (A)
                 (A) (A) (A) (A) (A) (A) (A) (A) (A) (A) (A) (A)
                 (A) (A) (A) (A) (A) (A) (A) (A) (A) (A) (A) (A)
                 (A) (A) (A) (A) (A) (A) (A) (A) (A) (A) (A) (A)
                 (A) (A) (A) (A) (A) (A) (A) (A) (A) (A) (A) (A)
                 (A) (A) (A) (A) (A) (A) (A) (A) (A) (A) (A) (A)
                 (A) (A) (A) (A) (A) (A) (A) (A) (A) (A) (A) (A)
                 (A) (A) (A) (A) (A) (A) (A) (A) (A) (A) (A) (A)
                 (A) (A) (A) (A) (A) (A) (A) (A) (A) (A) (A) (A)
                 (A) (A) (A) (A) (A) (A) (A) (A) (A) (A) (A) (A)
                 (A) (A) (A) (A) (A) (A) (A) (A) (A) (A) (A) (A)
                 (A) (A) (A) (A) (A) (A) (A) (A) (A) (A) (A) (A)
                 (A) (A) (A) (A) (A) (A) (A) (A) (A) (A) (A) (A)
                 (A) (A) (A) (A) (A) (A) (A) (A) (A) (A) (A) (A)
                 (A) (A) (A) (A) (A) (A) (A) (A) (A) (A) (A) (A)
                 (A) (A) (A) (A) (A) (A) (A) (A) (A) (A) (A) (A)
                 (A) (A) (A) (A) (A) (A) (A) (A) (A) (A) (A) (A)
                 (A) (A) (A) (A) (A) (A) (A) (A) (A) (A) (A) (A)
                 (A) (A) (A) (A) (A) (A) (A) (A) (A) (A) (A) (A)
                 (A) (A) (A) (A) (A) (A) (A) (A) (A) (A) (A) (A)
                 (A) (A) (A) (A) (A) (A) (A) (A) (A) (A) (A) (A)
                 (A) (A) (A) (A) (A) (A) (A) (A) (A) (A) (A) (A)
                 (A) (A) (A) (A) (A) (A) (A) (A) (A) (A) (A) (A)
                 (A) (A) (A) (A) (A) (A) (A) (A) (A) (A) (A) (A)
                 (A) (A) (A) (A) (A) (A) (A) (A) (A) (A) (A) (A)
                 (A) (A) (A) (A) (A) (A) (A) (A) (A) (A) (A) (A)
                 (A) (A) (A) (A) (A) (A) (A) (A) (A) (A) (A) (A)
                 (A) (A) (A) (A) (A) (A) (A) (A) (A) (A) (A) (A)
                 (A) (A) (A) (A) (A) (A) (A) (A) (A) (A) (A) (A)
                 (A) (A) (A) (A) (A) (A) (A) (A) (A) (A) (A) (A)
                 (A) (A) (A) (A) (A) (A) (A) (A) (A) (A) (A) (A)
                 (A) (A) (A) (A) (A) (A) (A) (A) (A) (A) (A) (A)
                 (A) (A) (A) (A) (A) (A) (A) (A) (A) (A) (A) (A)
                 (A) (A) (A) (A) (A) (A) (A) (A) (A) (A) (A) (A)
                 (A) (A) (A) (A) (A) (A) (A) (A) (A) (A) (A) (A)
                 (A) (A) (A) (A) (A) (A) (A) (A) (A) (A) (A) (A)
                 (A) (A) (A) (A) (A) (A) (A) (A) (A) (A) (A) (A)
                 (A) (A) (A) (A) (A) (A) (A) (A) (A) (A) (A) (A)
                 (A) (A) (A) (A) (A) (A) (A) (A) (A) (A) (A) (A)
                 (A) (A) (A) (A) (A) (A) (A) (A) (A) (A) (A) (A)
                 (A) (A) (A) (A) (A) (A) (A) (A) (A) (A) (A) (A)
                 (A) (A) (A) (A) (A) (A) (A) (A) (A) (A) (A) (A)
                 (A) (A) (A) (A) (A) (A) (A) (A) (A) (A) (A) (A)
                 (A) (A) (A) (A) (A) (A) (A) (A) (A) (A) (A) (A)
                 (A) (A) (A) (A) (A) (A) (A) (A) (A) (A)
 The electronic state is 2-A.
 Alpha  occ. eigenvalues --  -19.62964 -19.62856 -19.62043 -14.82834 -10.59129
 Alpha  occ. eigenvalues --  -10.59093 -10.58698 -10.58217 -10.58013 -10.58002
 Alpha  occ. eigenvalues --  -10.54561 -10.54355 -10.53856 -10.52270 -10.51976
 Alpha  occ. eigenvalues --   -1.18920  -1.14468  -1.14178  -0.97502  -0.91566
 Alpha  occ. eigenvalues --   -0.86649  -0.82134  -0.80299  -0.79227  -0.77602
 Alpha  occ. eigenvalues --   -0.74143  -0.74002  -0.69013  -0.67022  -0.59170
 Alpha  occ. eigenvalues --   -0.57828  -0.57343  -0.56714  -0.55674  -0.54750
 Alpha  occ. eigenvalues --   -0.53390  -0.52778  -0.52760  -0.50230  -0.50004
 Alpha  occ. eigenvalues --   -0.48772  -0.48277  -0.47062  -0.46840  -0.46034
 Alpha  occ. eigenvalues --   -0.45108  -0.44085  -0.43574  -0.42505  -0.42147
 Alpha  occ. eigenvalues --   -0.40751  -0.39809  -0.39207  -0.38622  -0.37983
 Alpha  occ. eigenvalues --   -0.36739  -0.34028  -0.33418  -0.32541  -0.25840
 Alpha virt. eigenvalues --    0.04992   0.06668   0.07515   0.08530   0.09289
 Alpha virt. eigenvalues --    0.10087   0.10914   0.11521   0.11996   0.12882
 Alpha virt. eigenvalues --    0.13224   0.13601   0.14057   0.14865   0.15052
 Alpha virt. eigenvalues --    0.15340   0.15405   0.16374   0.16579   0.17060
 Alpha virt. eigenvalues --    0.17515   0.18106   0.18431   0.19202   0.19474
 Alpha virt. eigenvalues --    0.20291   0.20795   0.21325   0.21909   0.22332
 Alpha virt. eigenvalues --    0.23078   0.23461   0.24202   0.24954   0.26119
 Alpha virt. eigenvalues --    0.26231   0.26441   0.26936   0.28228   0.28763
 Alpha virt. eigenvalues --    0.29262   0.30295   0.30841   0.31395   0.32306
 Alpha virt. eigenvalues --    0.33097   0.33799   0.34993   0.35987   0.36307
 Alpha virt. eigenvalues --    0.37404   0.37654   0.38343   0.38970   0.39916
 Alpha virt. eigenvalues --    0.40251   0.40937   0.41400   0.42390   0.42651
 Alpha virt. eigenvalues --    0.43000   0.43468   0.44245   0.45063   0.45521
 Alpha virt. eigenvalues --    0.46078   0.46334   0.46803   0.47408   0.47480
 Alpha virt. eigenvalues --    0.47873   0.48108   0.48964   0.49688   0.50279
 Alpha virt. eigenvalues --    0.50588   0.50966   0.51053   0.51383   0.52004
 Alpha virt. eigenvalues --    0.52188   0.52467   0.52584   0.52735   0.53011
 Alpha virt. eigenvalues --    0.53843   0.55708   0.56005   0.56615   0.57273
 Alpha virt. eigenvalues --    0.57923   0.58560   0.59496   0.60531   0.61149
 Alpha virt. eigenvalues --    0.62843   0.63414   0.65291   0.65508   0.66001
 Alpha virt. eigenvalues --    0.67690   0.68126   0.68725   0.69932   0.71345
 Alpha virt. eigenvalues --    0.71807   0.72369   0.74048   0.76002   0.77348
 Alpha virt. eigenvalues --    0.77716   0.79573   0.80334   0.81349   0.81547
 Alpha virt. eigenvalues --    0.83420   0.84779   0.85658   0.86390   0.87764
 Alpha virt. eigenvalues --    0.88677   0.89604   0.90470   0.91354   0.92459
 Alpha virt. eigenvalues --    0.92689   0.94050   0.94447   0.95091   0.96045
 Alpha virt. eigenvalues --    0.97041   0.97769   0.98913   0.99601   1.00883
 Alpha virt. eigenvalues --    1.02376   1.03950   1.04797   1.05426   1.05974
 Alpha virt. eigenvalues --    1.06812   1.07672   1.07880   1.10680   1.11512
 Alpha virt. eigenvalues --    1.11846   1.12629   1.14137   1.15337   1.16622
 Alpha virt. eigenvalues --    1.16915   1.17825   1.18856   1.19715   1.20757
 Alpha virt. eigenvalues --    1.22087   1.23445   1.24935   1.25662   1.27565
 Alpha virt. eigenvalues --    1.28927   1.30296   1.32397   1.32790   1.34798
 Alpha virt. eigenvalues --    1.36533   1.37036   1.38580   1.40288   1.41695
 Alpha virt. eigenvalues --    1.42397   1.43200   1.46502   1.47137   1.49461
 Alpha virt. eigenvalues --    1.50754   1.51029   1.52708   1.53557   1.54376
 Alpha virt. eigenvalues --    1.55681   1.56489   1.56860   1.57530   1.58660
 Alpha virt. eigenvalues --    1.59012   1.60024   1.60272   1.60611   1.61910
 Alpha virt. eigenvalues --    1.62829   1.63239   1.63985   1.65004   1.65660
 Alpha virt. eigenvalues --    1.66697   1.67005   1.67640   1.68011   1.68609
 Alpha virt. eigenvalues --    1.69108   1.69598   1.69872   1.71067   1.71286
 Alpha virt. eigenvalues --    1.72284   1.75243   1.75601   1.77072   1.78083
 Alpha virt. eigenvalues --    1.79227   1.80635   1.81875   1.83522   1.84056
 Alpha virt. eigenvalues --    1.84475   1.85499   1.87231   1.87970   1.88867
 Alpha virt. eigenvalues --    1.90001   1.91976   1.94259   1.94793   1.96021
 Alpha virt. eigenvalues --    1.97870   1.98676   1.99317   2.00240   2.01633
 Alpha virt. eigenvalues --    2.02040   2.02539   2.04064   2.04480   2.05656
 Alpha virt. eigenvalues --    2.06117   2.06752   2.08520   2.08771   2.09674
 Alpha virt. eigenvalues --    2.10632   2.12175   2.12649   2.15296   2.15882
 Alpha virt. eigenvalues --    2.16382   2.16886   2.18531   2.20639   2.21989
 Alpha virt. eigenvalues --    2.22469   2.23366   2.25494   2.26528   2.26917
 Alpha virt. eigenvalues --    2.28102   2.28552   2.30013   2.31016   2.31485
 Alpha virt. eigenvalues --    2.32113   2.32869   2.33698   2.34914   2.36578
 Alpha virt. eigenvalues --    2.36976   2.37598   2.38417   2.39298   2.39700
 Alpha virt. eigenvalues --    2.41866   2.42334   2.43283   2.44305   2.45974
 Alpha virt. eigenvalues --    2.46331   2.46542   2.46978   2.48233   2.49317
 Alpha virt. eigenvalues --    2.50170   2.50872   2.51157   2.52677   2.52846
 Alpha virt. eigenvalues --    2.54395   2.54553   2.55694   2.56117   2.56236
 Alpha virt. eigenvalues --    2.57795   2.57823   2.59025   2.60418   2.61078
 Alpha virt. eigenvalues --    2.62074   2.62166   2.63463   2.63936   2.65104
 Alpha virt. eigenvalues --    2.65774   2.66284   2.67072   2.67515   2.68302
 Alpha virt. eigenvalues --    2.69687   2.70041   2.70710   2.71638   2.72234
 Alpha virt. eigenvalues --    2.74399   2.74872   2.75868   2.76266   2.77553
 Alpha virt. eigenvalues --    2.78164   2.79689   2.79917   2.81674   2.82422
 Alpha virt. eigenvalues --    2.83761   2.85493   2.86249   2.86809   2.88283
 Alpha virt. eigenvalues --    2.88494   2.89863   2.91470   2.92691   2.93535
 Alpha virt. eigenvalues --    2.95412   2.97512   2.99923   3.02664   3.03894
 Alpha virt. eigenvalues --    3.04650   3.07531   3.09066   3.10196   3.12144
 Alpha virt. eigenvalues --    3.13299   3.13845   3.14374   3.14775   3.16051
 Alpha virt. eigenvalues --    3.16749   3.17203   3.18884   3.20384   3.20436
 Alpha virt. eigenvalues --    3.20574   3.21795   3.22177   3.24042   3.24505
 Alpha virt. eigenvalues --    3.24914   3.25719   3.25785   3.26895   3.28016
 Alpha virt. eigenvalues --    3.29296   3.30101   3.30524   3.31458   3.32861
 Alpha virt. eigenvalues --    3.33181   3.33553   3.34524   3.35635   3.36588
 Alpha virt. eigenvalues --    3.37172   3.37328   3.38159   3.39191   3.39843
 Alpha virt. eigenvalues --    3.40956   3.41602   3.42709   3.44157   3.44869
 Alpha virt. eigenvalues --    3.46132   3.46311   3.47217   3.48146   3.49688
 Alpha virt. eigenvalues --    3.50760   3.51758   3.52614   3.53541   3.54098
 Alpha virt. eigenvalues --    3.54804   3.56472   3.56884   3.57677   3.58503
 Alpha virt. eigenvalues --    3.59069   3.60260   3.60822   3.62130   3.63513
 Alpha virt. eigenvalues --    3.64556   3.65895   3.68857   3.69070   3.69959
 Alpha virt. eigenvalues --    3.71665   3.72227   3.73279   3.74635   3.77237
 Alpha virt. eigenvalues --    3.79248   3.80200   3.82289   3.84332   3.87581
 Alpha virt. eigenvalues --    3.89280   3.89710   3.93788   3.94376   3.96696
 Alpha virt. eigenvalues --    3.99488   4.00361   4.01616   4.02772   4.04432
 Alpha virt. eigenvalues --    4.07593   4.08985   4.10800   4.11803   4.12719
 Alpha virt. eigenvalues --    4.14391   4.15747   4.16256   4.17099   4.17758
 Alpha virt. eigenvalues --    4.19513   4.20748   4.21705   4.23658   4.27537
 Alpha virt. eigenvalues --    4.28375   4.29573   4.31545   4.33286   4.33613
 Alpha virt. eigenvalues --    4.35174   4.36714   4.37057   4.38893   4.40381
 Alpha virt. eigenvalues --    4.42181   4.42873   4.44113   4.44978   4.46500
 Alpha virt. eigenvalues --    4.48393   4.49109   4.52070   4.52625   4.53989
 Alpha virt. eigenvalues --    4.58240   4.60287   4.65511   4.69625   4.71666
 Alpha virt. eigenvalues --    4.73446   4.77640   4.79184   4.80605   4.82485
 Alpha virt. eigenvalues --    4.84683   4.89459   4.93080   4.96283   4.98561
 Alpha virt. eigenvalues --    5.01130   5.03937   5.08728   5.11926   5.15228
 Alpha virt. eigenvalues --    5.20272   5.24297   5.26554   5.30509   5.37343
 Alpha virt. eigenvalues --    5.39472   5.43472   5.44418   5.44691   5.48282
 Alpha virt. eigenvalues --    5.52494   5.61383   5.70962   5.72699   5.78662
 Alpha virt. eigenvalues --    5.78834   5.79893   5.82116   5.85533   5.87187
 Alpha virt. eigenvalues --    6.09488   6.10346   6.12281   6.13712   6.13955
[...]
 7,-0.00008201,0.00009848,-0.00014841,-0.00000937,0.00000004,0.00000366
 ,-0.00000012,-0.00000685,-0.00000501,-0.00001585,-0.00000051,-0.000015
 51,-0.00000272,-0.00000150,-0.00000520,0.00000003,-0.00000527,-0.00001
 461,-0.00000290,-0.00000231,-0.00000790,0.00343648,-0.00003720,0.00561
 271,-0.00033796,0.00019472,-0.00026924,0.00033169,0.00018348,-0.001265
 46,0.00003305,0.00000911,0.00001947,-0.01369469,-0.01237818,0.02212483
 ,-0.00001201,0.00002837,-0.00002050,0.00001105,-0.00000988,0.00000659,
 -0.06361763,0.00214647,0.04884142,-0.00002021,0.00008201,0.00004012,-0
 .00001679,-0.00003226,-0.00003513,-0.00001928,0.00000551,-0.00001653,-
 0.00000011,-0.00000103,-0.00000350,-0.00000246,0.00000028,-0.00000131,
 -0.00000319,0.00000382,-0.00000076,0.00830083,0.00001433,-0.02539503,-
 0.00209655,0.00148520,0.01505064,0.06779334,-0.00006510,-0.00002695,-0
 .00002794,-0.00001538,-0.00009509,-0.00003964,0.00017912,0.00007644,0.
 00008007,0.00000797,-0.00023156,0.00006968,-0.00006242,0.00007911,-0.0
 0007510,-0.00003216,-0.00001394,0.00004425,0.00004241,0.00000351,-0.00
 003102,0.00000404,-0.00003431,0.00001402,0.00003424,0.00001443,-0.0000
 1923,-0.00007613,0.00012717,-0.00014961,-0.00002277,-0.00001536,0.0000
 1620,0.00000321,-0.00001165,-0.00000036,-0.00002262,-0.00000920,-0.000
 01197,-0.00000125,-0.00000086,-0.00000938,0.00000546,-0.00000843,-0.00
 001013,-0.00001212,0.00000497,-0.00000041,0.00340054,0.00024448,0.0030
 4305,-0.00045099,-0.00018844,-0.00058712,0.00022866,0.00032867,-0.0011
 0684,-0.00000414,0.00002865,-0.00000713,-0.01872005,-0.00992222,0.0314
 7774,-0.00003316,0.00006945,0.00001823,0.00001455,-0.00004937,-0.00004
 823,0.00198431,-0.05011005,-0.00275202,-0.00000461,0.00004377,0.000094
 69,-0.00004740,-0.00000884,-0.00004342,0.00001985,-0.00002450,-0.00002
 080,0.00000203,-0.00000046,0.00001460,-0.00000266,0.00000300,0.0000090
 1,-0.00000068,0.00000471,-0.00000299,-0.00070112,0.00053134,0.00630216
 ,0.00596351,0.00199329,-0.02703578,0.00840258,0.05719259,0.00013004,0.
 00001220,0.00007140,0.00006975,0.00013051,0.00000235,-0.00009586,-0.00
 018727,0.00048600,-0.00023311,-0.00010326,-0.00004147,0.00000150,-0.00
 002252,0.00011297,0.00001663,0.00001180,-0.00003579,-0.00003898,-0.000
 02324,0.00005814,-0.00003463,0.00002987,-0.00004451,-0.00006080,0.0000
 1264,0.00001809,0.00001902,-0.00012091,0.00005789,0.00000026,-0.000006
 34,-0.00000279,0.00000647,0.00001495,-0.00000024,0.00002326,0.00000619
 ,0.00000630,-0.00000059,0.00000090,0.00001045,-0.00000366,0.00000621,0
 .00002527,0.00001854,-0.00000303,0.00000474,-0.00241135,-0.00048452,0.
 00199739,0.00025725,-0.00017121,-0.00037899,0.00174272,0.00017873,0.00
 017021,0.00000280,0.00006343,-0.00003401,0.00773722,0.01044031,-0.0028
 3253,0.00005417,-0.00006236,0.00002031,-0.00003940,0.00004071,0.000000
 36,0.05230940,0.00137213,-0.29107496,0.00006114,-0.00006003,-0.0000745
 1,0.00005099,0.00001331,0.00004139,0.00000825,0.00003398,0.00003253,0.
 00000041,0.00000094,0.00000581,0.00001155,0.00000038,-0.00000225,0.000
 00282,-0.00000784,0.00000361,0.00388217,-0.00129766,-0.01498924,0.0007
 8103,-0.00060983,-0.00830206,-0.06429405,-0.00921141,0.31470032,-0.005
 35918,0.00045581,-0.00397547,-0.04064041,-0.01028227,-0.01761073,-0.00
 030314,-0.00369290,0.00229879,-0.00030542,-0.00000272,0.00052459,0.000
 67089,-0.00005325,0.00034757,-0.00602063,0.00319298,-0.00942961,-0.116
 88372,-0.01334009,-0.05181281,0.00968038,-0.00111774,0.00549060,-0.000
 13000,-0.00007681,-0.00008365,0.00003303,-0.00005760,-0.00011717,-0.00
 004885,0.00011585,-0.00012325,0.00005752,-0.00005754,0.00004725,0.0001
 9541,-0.00090579,0.00117627,0.00003903,-0.00073905,-0.00006433,-0.0008
 6258,0.00328973,0.00249620,0.00024423,0.00017451,0.00087992,-0.0006145
 5,0.00093719,-0.00064844,0.00000420,-0.00004869,-0.00004213,0.00003704
 ,0.00002551,0.00000468,-0.00011528,-0.00020386,-0.00015495,-0.00060166
 ,-0.00059950,0.00000720,-0.00003471,0.00052149,-0.00026026,0.00034046,
 0.00001185,-0.00021551,0.00000125,0.00020210,-0.00012134,-0.00003263,0
 .00013047,0.00003004,0.00001443,-0.00001452,0.00000498,0.00000556,0.00
 011370,-0.00000389,-0.00009551,-0.00003448,-0.00004737,-0.00006964,0.0
 0000240,0.00004609,-0.00009042,0.00010207,-0.00001612,-0.00005725,-0.0
 0004895,0.00000113,0.00000276,-0.00003897,0.00000272,-0.00000404,-0.00
 001571,0.00001943,0.54226241,-0.00115806,-0.00105170,-0.00142408,-0.01
 252830,-0.00200884,-0.00603320,0.00017683,-0.00057762,0.00132717,-0.00
 038072,-0.00065875,-0.00009166,0.00016694,-0.00489267,0.00269848,0.020
 42879,0.00540805,0.02175362,-0.01436556,-0.08196338,-0.01699454,-0.015
 17658,-0.00892244,-0.02697398,0.00018692,0.00024929,0.00002499,0.00003
 573,0.00019023,-0.00005195,0.00037457,-0.00005625,0.00058887,0.0010341
 4,0.00001457,0.00124120,0.00033071,0.00049229,-0.00025819,0.00055402,0
 .00097146,0.00128729,0.00140675,-0.00371389,-0.00223223,-0.00143436,0.
 00066557,0.00076537,-0.00017756,0.00013304,-0.00026461,0.00000327,0.00
 001582,-0.00001253,0.00005143,0.00007391,-0.00001496,-0.00016072,-0.00
 011534,-0.00006515,-0.00017237,-0.00010471,-0.00006044,-0.00038468,0.0
 0070224,-0.00001960,-0.00021417,0.00003906,-0.00031997,-0.00002459,0.0
 0001033,-0.00003961,-0.00003305,0.00003833,-0.00001313,0.00011676,0.00
 006959,-0.00006570,0.00001321,0.00007483,0.00013278,0.00014223,0.00001
 700,0.00017900,-0.00005754,0.00006224,0.00001465,0.00003187,-0.0000045
 9,0.00011719,-0.00001586,-0.00001402,0.00000389,0.00000085,-0.00000013
 ,0.00000075,0.00000423,0.00000696,-0.00000097,-0.02059775,0.59376751,0
 .00256983,0.00102272,-0.00000606,0.00891546,0.00033427,0.01305421,0.00
 113569,0.00180929,-0.00255990,0.00029839,-0.00006599,-0.00006002,0.000
 75385,0.00268051,-0.00072163,-0.01646837,-0.00000516,-0.01998746,-0.05
 784887,-0.01518106,-0.14295916,-0.01113676,-0.01226775,-0.02288311,0.0
 0001256,0.00004724,0.00007167,-0.00003271,-0.00001747,0.00016559,-0.00
 026802,-0.00010586,-0.00024422,-0.00048364,-0.00002705,-0.00054403,-0.
 00017679,-0.00092978,0.00032216,0.00055118,-0.00176496,0.00122617,0.00
 099718,-0.00252655,-0.00081145,-0.00107021,0.00033702,0.00026159,0.000
 39554,-0.00073589,0.00033682,0.00000014,0.00002917,0.00002865,-0.00007
 107,-0.00002159,0.00001845,0.00036397,0.00020302,0.00026761,0.00056513
 ,0.00043790,0.00009389,-0.00103739,0.00040445,-0.00090390,-0.00038286,
 0.00060867,-0.00007212,-0.00000846,-0.00016441,0.00010274,0.00007205,-
 0.00021248,-0.00007244,0.00000174,0.00007422,-0.00000136,0.00001867,-0
 .00015288,0.00005480,0.00009796,-0.00007225,-0.00006876,0.00004902,0.0
 0002494,-0.00000045,0.00002316,0.00006380,0.00014215,0.00005125,0.0000
 4072,0.00000220,-0.00000360,0.00003092,-0.00000456,-0.00000151,0.00001
 117,-0.00001460,-0.05670506,-0.02010870,0.54086288,-0.00074389,-0.0008
 9489,0.00025053,0.00161134,0.00018784,-0.00028366,-0.00010794,0.000161
 83,-0.00021302,0.00007688,-0.00003539,-0.00003222,-0.00002477,-0.00007
 286,0.00014406,0.00058316,-0.00100868,0.00044103,0.00681491,-0.0159672
 4,-0.01382216,-0.00319553,-0.00031248,-0.00309518,0.00002664,0.0000278
 2,0.00003349,-0.00000733,0.00000694,0.00001838,0.00001088,-0.00003064,
 0.00003936,0.00001446,0.00001781,0.00000462,0.00001937,0.00014670,-0.0
 0000521,0.00011660,0.00024773,0.00007112,0.00065634,-0.00091010,-0.000
 74100,0.00027088,0.00007807,-0.00025828,0.00000124,-0.00006615,-0.0000
 0601,0.00000565,0.00001193,0.00000474,-0.00001626,-0.00000912,0.000009
 20,0.00008717,-0.00004608,0.00000940,0.00009968,0.00006889,0.00003363,
 0.00029005,0.00009297,0.00025197,-0.00009369,-0.00010223,-0.00001221,-
 0.00002807,-0.00004619,0.00001349,0.00000778,0.00002337,0.00003732,-0.
 00006078,-0.00000753,0.00006229,0.00001282,0.00005416,-0.00004545,0.00
 004842,0.00002096,0.00004501,0.00001776,-0.00000416,-0.00003162,0.0000
 2237,-0.00002256,0.00001362,0.00000958,0.00000406,0.00000231,-0.000000
 60,0.00000980,-0.00000146,-0.00000071,0.00000321,-0.00000406,-0.086966
 73,0.07613214,0.06453362,0.09261686,0.00035076,0.00074706,0.00109831,0
 .00059654,0.00047050,-0.00093907,-0.00022469,-0.00022810,-0.00011801,0
 .00006404,-0.00003246,-0.00005285,-0.00019250,0.00013437,0.00009848,-0
 .00001016,0.00038941,0.00097000,0.00240440,-0.00621724,-0.00361289,-0.
 00145645,-0.00009268,-0.00021830,0.00001589,0.00002177,0.00002404,-0.0
 0001764,0.00000582,0.00003760,0.00004442,0.00000949,0.00006858,-0.0000
 4696,-0.00000202,-0.00004136,-0.00008151,-0.00001112,0.00011726,0.0002
 1155,0.00051472,0.00015838,0.00029578,-0.00028546,-0.00021705,0.000166
 50,0.00016605,0.00010804,-0.00000775,-0.00008280,-0.00001526,-0.000001
 02,0.00002150,0.00001149,-0.00003001,-0.00001338,0.00001662,0.00005120
 ,0.00003771,0.00000333,0.00005660,0.00005601,0.00004696,-0.00025096,-0
 .00007550,-0.00078288,-0.00024799,0.00031800,0.00008267,-0.00000810,-0
 .00004205,0.00000008,0.00003324,-0.00002977,0.00000955,-0.00007418,0.0
 0000639,0.00000916,-0.00003961,-0.00001056,-0.00001211,0.00005348,-0.0
 0011266,-0.00007616,0.00004542,-0.00000965,-0.00002221,0.00002202,-0.0
 0002581,0.00002376,0.00000676,0.00000461,0.00000098,-0.00000213,0.0000
 1008,0.00000102,-0.00000282,0.00000228,0.00000115,0.07340743,-0.181423
 51,-0.11630220,-0.08069979,0.19354041,0.00016408,0.00005565,0.00092863
 ,0.00116988,0.00130452,-0.00000490,-0.00006608,0.00001500,-0.00007895,
 0.00001327,-0.00011139,0.00000834,-0.00032506,0.00028976,0.00036128,0.
 00132442,-0.00136805,0.00076786,0.00992195,-0.01705374,-0.01623683,-0.
 00417179,0.00050233,-0.00380904,0.00007074,0.00008282,0.00004265,-0.00
 000465,0.00005366,0.00000190,0.00015475,0.00001026,0.00019156,-0.00005
 015,0.00002598,-0.00005924,-0.00008381,-0.00001445,-0.00007145,-0.0005
 6732,0.00097043,-0.00021614,0.00034720,-0.00141433,-0.00068092,-0.0002
 9299,0.00021064,0.00024177,0.00003271,-0.00004213,0.00003132,0.0000078
 2,0.00002692,0.00000410,-0.00000346,-0.00000141,0.00000483,-0.00004873
 ,-0.00010508,0.00003471,0.00000865,0.00005237,-0.00000020,0.00034506,0
 .00009817,0.00065262,0.00000018,-0.00002306,0.00015663,-0.00000537,-0.
 00002519,0.00000383,0.00001466,0.00004721,0.00000794,-0.00002820,-0.00
 001235,0.00001978,-0.00004132,0.00006695,-0.00006845,0.00000550,0.0000
 7962,0.00004733,-0.00000534,0.00001034,-0.00002565,0.00003045,-0.00006
 162,0.00000662,0.00000234,0.00000209,-0.00000083,-0.00000044,0.0000078
 1,0.00000067,0.00000098,0.00000141,-0.00000080,0.06173609,-0.11585467,
 -0.14504339,-0.06616968,0.12812690,0.15850520,-0.00124957,-0.00058796,
 0.00087592,0.00081842,0.00058238,-0.00043661,-0.00026605,0.00002666,-0
 .00017476,0.00029165,0.00006362,0.00009921,0.00047436,0.00105889,-0.00
 071073,-0.00310451,-0.00186960,-0.00234495,-0.00438902,0.01884067,-0.0
 1110339,0.00045195,0.00066032,0.00050708,-0.00001845,-0.00003017,0.000
 00195,-0.00001050,-0.00002619,0.00006147,-0.00017976,-0.00002089,-0.00
 018133,-0.00020533,-0.00000879,-0.00024927,0.00026612,0.00010816,-0.00
 026943,-0.00004601,-0.00040646,0.00000981,-0.00006489,0.00000427,0.000
 03930,-0.00002510,-0.00012581,0.00001861,-0.00003383,-0.00003651,0.000
 00089,-0.00001042,-0.00001985,-0.00001337,-0.00004481,-0.00002013,0.00
 003147,0.00013198,0.00006571,0.00008728,0.00013707,0.00002843,0.000080
 64,-0.00022220,0.00013993,0.00028050,0.00021043,-0.00024410,0.00017347
 ,-0.00001665,-0.00003998,0.00001122,0.00003018,-0.00006317,-0.00001132
 ,-0.00003286,0.00003150,0.00002002,0.00001282,-0.00006090,0.00000750,-
 0.00005726,0.00009805,0.00005192,-0.00008153,0.00004231,0.00009777,0.0
 0002839,-0.00000663,-0.00002710,0.00001148,0.00000478,0.00000258,-0.00
 000261,0.00000459,-0.00000406,-0.00000507,0.00000300,-0.00000123,-0.05
 522075,0.04190756,-0.02788382,-0.00306966,0.00963296,-0.00683538,0.058
 81245,-0.00255896,-0.00055423,-0.00037396,0.00012055,-0.00010578,0.001
 10069,0.00003583,0.00009376,-0.00011011,0.00001980,0.00000833,0.000081
 75,-0.00033758,0.00056842,-0.00026834,-0.00097854,-0.00029620,-0.00099
 528,-0.00039767,0.00752532,-0.00426424,0.00067627,0.00055187,0.0001122
 8,-0.00000777,-0.00001495,-0.00000361,0.00001120,-0.00000351,-0.000017
 83,0.00004091,0.00002642,0.00001558,-0.00010033,0.00000018,-0.00012670
 ,-0.00004515,-0.00009121,-0.00010490,-0.00024438,0.00029185,0.00000197
 ,-0.00004449,0.00004032,0.00025348,0.00016502,-0.00009359,0.00018470,-
 0.00001129,0.00003609,0.00002879,0.00000440,-0.00001150,-0.00001065,0.
 00001534,0.00000610,-0.00000518,-0.00001248,-0.00003450,-0.00000654,0.
 00002054,-0.00000168,-0.00001407,-0.00048446,-0.00134071,-0.00126723,-
 0.00003565,-0.00024192,-0.00016336,-0.00000907,0.00000070,0.00000600,0
 .00000207,0.00001926,0.00000455,0.00000425,-0.00001996,0.00000929,-0.0
 0001026,0.00001658,-0.00002593,0.00003008,-0.00002230,0.00004541,-0.00
 005165,0.00005710,0.00005293,-0.00001687,-0.00001677,-0.00000445,0.000
 00137,-0.00000099,0.00000050,0.00000025,-0.00000143,-0.00000217,0.0000
 0118,0.00000045,-0.00000232,0.04574069,-0.23909565,0.12639257,0.003239
 26,-0.01685775,0.01190890,-0.04648805,0.25625670,0.00169712,-0.0004753
 2,0.00060648,0.00071061,0.00038264,-0.00057321,-0.00000435,0.00004039,
 -0.00013086,0.00014012,0.00018823,0.00001729,-0.00008227,0.00147860,-0
 .00009861,-0.00337365,-0.00249531,-0.00286340,-0.00402219,0.02007353,-
 0.01440562,-0.00029405,0.00203134,-0.00028915,-0.00002954,-0.00007545,
 -0.00000910,-0.00001914,-0.00005577,0.00000908,-0.00002960,0.00001099,
 -0.00010495,-0.00033392,-0.00004348,-0.00040783,0.00001430,-0.00025653
 ,0.00017922,-0.00009548,0.00014015,0.00013425,0.00002680,0.00007003,0.
 00024342,0.00009368,-0.00019588,-0.00011168,-0.00001110,0.00009394,0.0
 0003767,-0.00000694,-0.00002626,-0.00001715,-0.00001651,-0.00002770,0.
 00001319,0.00001402,-0.00000200,0.00000845,-0.00001078,-0.00006245,0.0
 0002650,0.00039912,-0.00035379,0.00077683,0.00036923,-0.00069692,0.000
 02996,0.00001286,0.00003612,0.00000452,0.00000270,0.00000473,0.0000105
 4,-0.00002648,-0.00001031,0.00002231,-0.00000248,-0.00002533,-0.000041
 35,-0.00003233,0.00021121,0.00019139,-0.00007386,0.00004330,0.00001775
 ,-0.00000634,0.00001152,-0.00003557,-0.00000245,-0.00000173,-0.0000022
 1,0.00000096,-0.00000938,-0.00000235,-0.00000206,-0.00000538,0.0000020
 2,-0.02923731,0.12354886,-0.12773340,0.00394865,-0.01681497,0.01168249
 ,0.03307297,-0.13551530,0.13965566,0.00005083,0.00040736,-0.00099577,-
 0.00294537,-0.00093608,-0.00309323,0.00017820,-0.00102375,0.00100259,0
 .00009461,-0.00002563,0.00027117,0.00021289,0.00005089,-0.00030589,0.0
 0047785,-0.00043521,0.00153515,-0.01895446,-0.00621979,0.01018039,-0.0
 0016973,0.00041606,0.00156923,0.00001639,-0.00001540,-0.00002703,0.000
 04928,0.00006048,-0.00008778,0.00000809,0.00003083,-0.00003093,0.00004
 252,-0.00000844,0.00003084,0.00032193,0.00048463,-0.00080009,-0.000164
 23,0.00004606,-0.00004234,0.00043965,0.00022704,-0.00015558,0.00091853
 ,-0.00007954,-0.00032545,-0.00012981,0.00035940,-0.00018714,0.00000406
 ,-0.00000175,-0.00001174,0.00004464,0.00002076,-0.00000616,-0.00014547
 ,-0.00007475,-0.00008776,-0.00032427,-0.00023823,-0.00005117,0.0000044
 6,0.00004964,-0.00033372,-0.00005695,-0.00002815,-0.00003325,0.0000373
 9,0.00012574,-0.00005737,-0.00004639,0.00007251,0.00000591,0.00005917,
 -0.00001479,-0.00002217,0.00001428,0.00004907,0.00001998,0.00002022,-0
 .00002229,0.00000598,0.00003357,-0.00002768,-0.00001343,0.00000052,0.0
 0000612,-0.00000147,-0.00003145,-0.00002098,-0.00000313,0.00000403,-0.
 00002097,0.00000347,0.00000121,-0.00000822,0.00001089,-0.23913152,-0.0
 7621707,0.09217277,-0.00910488,-0.00406472,0.00334904,0.00667953,0.001
 70565,-0.00279032,0.26149068,-0.00107877,0.00045179,-0.00017928,-0.000
 62709,0.00035374,-0.00030593,0.00010868,-0.00016554,0.00035693,0.00005
 220,0.00006864,0.00001899,0.00002343,-0.00015390,-0.00017571,0.0005250
 2,0.00013347,0.00053452,-0.00451518,-0.00397497,0.00343906,-0.00092523
 ,-0.00016332,0.00064838,-0.00001561,-0.00003180,-0.00000068,-0.0000001
 9,-0.00000549,-0.00003151,-0.00003103,0.00001749,-0.00005376,0.0000308
 2,0.00000690,0.00000570,0.00032132,0.00035110,0.00024903,0.00006378,-0
 .00005054,-0.00022606,0.00025144,0.00014475,-0.00004949,0.00019730,-0.
 00030661,-0.00071036,-0.00001631,0.00011393,-0.00000951,0.00000005,-0.
 00000873,-0.00000119,0.00001415,0.00000345,-0.00000877,-0.00007834,-0.
 00003545,-0.00006235,-0.00009118,-0.00007238,-0.00002548,0.00056122,-0
 .00012739,-0.00022988,-0.00017853,-0.00002206,-0.00006189,0.00002359,0
 .00004837,-0.00001718,-0.00001693,0.00004065,0.00001834,-0.00001158,-0
 .00002599,0.00000350,-0.00000026,0.00001541,-0.00001952,0.00003679,-0.
 00002518,-0.00002415,0.00005562,-0.00003364,-0.00006111,0.00000078,0.0
 0000995,0.00000383,-0.00000927,-0.00000513,-0.00000193,0.00000108,-0.0
 0000883,0.00000137,0.00000059,-0.00000405,0.00000440,-0.07649558,-0.07
 839882,0.03610945,0.01970062,0.00909635,-0.00786226,-0.02324858,-0.006
 69484,0.00878368,0.08537118,0.07945868,0.00185088,0.00087028,0.0008222
 3,-0.00424175,-0.00003057,-0.00489091,-0.00052118,-0.00087681,0.000644
 25,-0.00006368,-0.00006288,0.00019948,0.00010504,-0.00016187,0.0001496
 3,-0.00044369,-0.00039824,0.00072628,-0.02041723,-0.00824886,0.0083778
 3,-0.00043421,-0.00014188,0.00075548,-0.00000034,0.00000221,-0.0000078
 1,0.00001324,0.00000699,-0.00001412,0.00001759,0.00000976,0.00001343,0
 .00005015,-0.00000903,0.00004897,-0.00019101,0.00014289,-0.00033963,0.
 00016543,0.00017897,0.00005788,0.00005320,0.00028532,0.00016968,0.0000
 0546,-0.00037208,-0.00036269,-0.00017269,0.00021797,-0.00016945,-0.000
 00559,-0.00001471,-0.00001206,-0.00000839,-0.00000869,0.00001838,-0.00
 002782,-0.00005977,-0.00003346,-0.00009840,-0.00012039,0.00003209,0.00
 004959,0.00039652,0.00004377,0.00009161,-0.00016093,-0.00006038,-0.000
 02845,0.00000705,-0.00002403,0.00000127,0.00004061,0.00002404,-0.00003
 151,0.00000401,0.00001173,0.00000207,0.00004090,-0.00000996,-0.0000148
 2,0.00001067,0.00002313,-0.00002598,0.00000374,0.00004083,0.00000258,0
 .00001238,-0.00000919,-0.00000805,-0.00001049,0.00000282,-0.00000087,-
 0.00000303,-0.00000052,-0.00000238,-0.00000037,0.00000118,0.09555583,0
 .03721578,-0.09231958,0.01475338,0.00821098,-0.00740528,0.01471520,0.0
 0308276,-0.00684257,-0.10069447,-0.04005918,0.10033853\\0.00001784,-0.
 00000058,0.00000833,0.00004842,0.00002961,0.00001819,0.00000635,-0.000
 03894,-0.00000625,-0.00001352,0.00001525,-0.00001564,0.00000107,-0.000
 00803,0.00000958,0.00001474,0.00003688,-0.00002758,-0.00006283,-0.0000
 5173,0.00002011,0.00001049,0.00000484,-0.00001812,-0.00000774,-0.00000
 621,-0.00000291,0.00000116,0.00000038,-0.00000088,0.00000081,0.0000038
 4,-0.00000363,-0.00000241,0.00000577,-0.00000288,-0.00000365,-0.000006
 92,0.00000287,0.00000009,0.00000150,0.00000459,0.00000586,0.00000372,-
 0.00000244,-0.00000075,-0.00000074,0.00000311,0.00000022,0.00001217,-0
 .00000629,0.00000919,-0.00000398,-0.00000213,-0.00000100,-0.00000365,0
 .00000180,-0.00002369,0.00001054,-0.00000598,-0.00000409,-0.00000040,-
 0.00000614,0.00000460,-0.00001104,0.00000588,-0.00000453,0.00001339,-0
 .00000216,0.00001143,0.00001109,0.00000314,0.00000418,0.00000304,0.000
 00354,0.00000349,0.00000574,0.00000428,0.00001014,0.00000167,0.0000023
 7,-0.00000314,-0.00000724,0.00000209,0.00000342,-0.00000489,0.00000294
 ,0.00000148,-0.00000834,-0.00000158,-0.00000608,-0.00000280,-0.0000031
 6,-0.00000375,-0.00000391,-0.00000535,-0.00000659,0.00000147,-0.000000
 55,-0.00001725,-0.00000056,0.00001091,0.00000032,0.00000455,0.00000447
 ,0.00000505,-0.00000555,0.00000393,0.00000065,0.00000004,0.00000153\\\
 @
 The archive entry for this job was punched.


 EVERYBODY NEEDS BEAUTY AS WELL AS BREAD, PLACES TO PLAY IN AND PRAY IN,
 WHERE NATURE MAY HEAL AND CHEER AND GIVE STRENGTH TO BODY AND SOUL ALIKE.

                                    -- JOHN MUIR
 Job cpu time:       1 days 20 hours 42 minutes 31.9 seconds.
 Elapsed time:       0 days  2 hours 14 minutes  8.4 seconds.
 File lengths (MBytes):  RWF=   2053 Int=      0 D2E=      0 Chk=     41 Scr=      1
 Normal termination of Gaussian 16 at Fri Jan 10 05:45:25 2025.
