 Entering Gaussian System, Link 0=g16
 Input=gjfs/data_set_3-catalyst-Mix_13_opt.gjf
 Output=gjfs/data_set_3-catalyst-Mix_13_opt.log
 Initial command:
 /usr/local/intel/g16/l1.exe "/scr/Gau-1183830.inp" -scrdir="/scr/"
 Entering Link 1 = /usr/local/intel/g16/l1.exe PID=   1183832.
  
 Copyright (c) 1988-2019, Gaussian, Inc.  All Rights Reserved.
  
 This is part of the Gaussian(R) 16 program.  It is based on
 the Gaussian(R) 09 system (copyright 2009, Gaussian, Inc.),
 the Gaussian(R) 03 system (copyright 2003, Gaussian, Inc.),
 the Gaussian(R) 98 system (copyright 1998, Gaussian, Inc.),
 the Gaussian(R) 94 system (copyright 1995, Gaussian, Inc.),
 the Gaussian 92(TM) system (copyright 1992, Gaussian, Inc.),
 the Gaussian 90(TM) system (copyright 1990, Gaussian, Inc.),
 the Gaussian 88(TM) system (copyright 1988, Gaussian, Inc.),
 the Gaussian 86(TM) system (copyright 1986, Carnegie Mellon
 University), and the Gaussian 82(TM) system (copyright 1983,
 Carnegie Mellon University). Gaussian is a federally registered
 trademark of Gaussian, Inc.
  
 This software contains proprietary and confidential information,
 including trade secrets, belonging to Gaussian, Inc.
  
 This software is provided under written license and may be
 used, copied, transmitted, or stored only in accord with that
 written license.
  
 The following legend is applicable only to US Government
 contracts under FAR:
  
                    RESTRICTED RIGHTS LEGEND
  
 Use, reproduction and disclosure by the US Government is
 subject to restrictions as set forth in subparagraphs (a)
 and (c) of the Commercial Computer Software - Restricted
 Rights clause in FAR 52.227-19.
  
 Gaussian, Inc.
 340 Quinnipiac St., Bldg. 40, Wallingford CT 06492
  
  
 ---------------------------------------------------------------
 Warning -- This program may not be used in any manner that
 competes with the business of Gaussian, Inc. or will provide
 assistance to any competitor of Gaussian, Inc.  The licensee
 of this program is prohibited from giving any competitor of
 Gaussian, Inc. access to this program.  By using this program,
 the user acknowledges that Gaussian, Inc. is engaged in the
 business of creating and licensing software in the field of
 computational chemistry and represents and warrants to the
 licensee that it is not a competitor of Gaussian, Inc. and that
 it will not use this program in any manner prohibited above.
 ---------------------------------------------------------------
  

 Cite this work as:
 Gaussian 16, Revision C.01,
 M. J. Frisch, G. W. Trucks, H. B. Schlegel, G. E. Scuseria, 
 M. A. Robb, J. R. Cheeseman, G. Scalmani, V. Barone, 
 G. A. Petersson, H. Nakatsuji, X. Li, M. Caricato, A. V. Marenich, 
 J. Bloino, B. G. Janesko, R. Gomperts, B. Mennucci, H. P. Hratchian, 
 J. V. Ortiz, A. F. Izmaylov, J. L. Sonnenberg, D. Williams-Young, 
 F. Ding, F. Lipparini, F. Egidi, J. Goings, B. Peng, A. Petrone, 
 T. Henderson, D. Ranasinghe, V. G. Zakrzewski, J. Gao, N. Rega, 
 G. Zheng, W. Liang, M. Hada, M. Ehara, K. Toyota, R. Fukuda, 
 J. Hasegawa, M. Ishida, T. Nakajima, Y. Honda, O. Kitao, H. Nakai, 
 T. Vreven, K. Throssell, J. A. Montgomery, Jr., J. E. Peralta, 
 F. Ogliaro, M. J. Bearpark, J. J. Heyd, E. N. Brothers, K. N. Kudin, 
 V. N. Staroverov, T. A. Keith, R. Kobayashi, J. Normand, 
 K. Raghavachari, A. P. Rendell, J. C. Burant, S. S. Iyengar, 
 J. Tomasi, M. Cossi, J. M. Millam, M. Klene, C. Adamo, R. Cammi, 
 J. W. Ochterski, R. L. Martin, K. Morokuma, O. Farkas, 
 J. B. Foresman, and D. J. Fox, Gaussian, Inc., Wallingford CT, 2019.
 
 ******************************************
 Gaussian 16:  ES64L-G16RevC.01  3-Jul-2019
                 9-Jan-2025 
 ******************************************
 %nprocshared=20
 Will use up to   20 processors via shared memory.
 %mem=30GB
 %chk=outputs/data_set_3-catalyst-Mix_13_opt.chk
 ----------------------------------
 #p M062X/DEF2TZVP opt freq pop=NBO
 ----------------------------------
 1/18=20,19=15,26=3,38=1/1,3;
 2/9=110,12=2,17=6,18=5,40=1/2;
 3/5=44,7=101,11=2,25=1,30=1,71=1,74=-55/1,2,3;
 4//1;
 5/5=2,38=5/2;
 6/7=2,8=2,9=2,10=2,28=1,40=1/1,7;
 7//1,2,3,16;
 1/18=20,19=15,26=3/3(2);
 2/9=110/2;
 99//99;
 2/9=110/2;
 3/5=44,7=101,11=2,25=1,30=1,71=1,74=-55/1,2,3;
 4/5=5,16=3,69=1/1;
 5/5=2,38=5/2;
 7//1,2,3,16;
 1/18=20,19=15,26=3/3(-5);
 2/9=110/2;
 6/7=2,8=2,9=2,10=2,19=2,28=1,40=1/1,7;
 99/9=1/99;
 Leave Link    1 at Thu Jan  9 11:34:51 2025, MaxMem=  4026531840 cpu:               1.2 elap:               0.1
 (Enter /usr/local/intel/g16/l101.exe)
 ------------------------------
 data_set_3-catalyst-Mix_13_opt
 ------------------------------
 Symbolic Z-matrix:
 Charge =  0 Multiplicity = 2
 O                     2.05039   1.15356  -0.809 
 N                     1.02278   0.49618  -0.29457 
 C                    -0.13132   1.38421   0.09353 
 C                     1.23759  -0.9479    0.07403 
 C                    -0.46575   2.24951  -1.14382 
 C                     0.34779   2.30074   1.2446 
 C                     1.23732  -1.13017   1.60941 
 C                     2.62833  -1.36061  -0.45244 
 H                    -1.27442   2.94633  -0.8998 
 H                    -0.7821    1.63046  -1.98921 
 H                     0.41535   2.81498  -1.45096 
 H                    -0.44117   3.01264   1.51087 
 H                     1.23444   2.85626   0.92859 
 H                     0.59999   1.71429   2.13488 
 H                     0.29815  -0.83645   2.08119 
 H                     2.04345  -0.53606   2.05153 
 H                     1.41495  -2.18451   1.84929 
 H                     3.41557  -0.7407   -0.02071 
 H                     2.68525  -1.25935  -1.53903 
 H                     2.80711  -2.4071   -0.18147 
 C                    -1.40617   0.64022   0.55945 
 C                    -1.96546  -0.47537  -0.33595 
 C                    -1.25977  -1.82145  -0.14836 
 C                     0.19372  -1.84906  -0.64056 
 O                    -3.39796  -0.62707  -0.08472 
 H                    -2.18396   1.4095    0.62289 
 H                    -1.27821   0.25184   1.57831 
 H                    -1.92426  -0.1792   -1.38711 
 H                    -1.82776  -2.57394  -0.70736 
 H                    -1.30839  -2.10942   0.91295 
 H                     0.2196   -1.59566  -1.70854 
 H                     0.55566  -2.88096  -0.55425 
 H                    -3.54587  -0.95886   0.82038 
 
 ITRead=  0  0  0  0  0  0  0  0  0  0  0  0  0  0  0  0  0  0  0  0
 ITRead=  0  0  0  0  0  0  0  0  0  0  0  0  0
 MicOpt= -1 -1 -1 -1 -1 -1 -1 -1 -1 -1 -1 -1 -1 -1 -1 -1 -1 -1 -1 -1
 MicOpt= -1 -1 -1 -1 -1 -1 -1 -1 -1 -1 -1 -1 -1
 NAtoms=     33 NQM=       33 NQMF=       0 NMMI=      0 NMMIF=      0
                NMic=       0 NMicF=      0.
                    Isotopes and Nuclear Properties:
 (Nuclear quadrupole moments (NQMom) in fm**2, nuclear magnetic moments (NMagM)
  in nuclear magnetons)

  Atom         1           2           3           4           5           6           7           8           9          10
 IAtWgt=          16          14          12          12          12          12          12          12           1           1
 AtmWgt=  15.9949146  14.0030740  12.0000000  12.0000000  12.0000000  12.0000000  12.0000000  12.0000000   1.0078250   1.0078250
 NucSpn=           0           2           0           0           0           0           0           0           1           1
 AtZEff=  -0.0000000  -0.0000000  -0.0000000  -0.0000000  -0.0000000  -0.0000000  -0.0000000  -0.0000000  -0.0000000  -0.0000000
 NQMom=    0.0000000   2.0440000   0.0000000   0.0000000   0.0000000   0.0000000   0.0000000   0.0000000   0.0000000   0.0000000
 NMagM=    0.0000000   0.4037610   0.0000000   0.0000000   0.0000000   0.0000000   0.0000000   0.0000000   2.7928460   2.7928460
 AtZNuc=   8.0000000   7.0000000   6.0000000   6.0000000   6.0000000   6.0000000   6.0000000   6.0000000   1.0000000   1.0000000

  Atom        11          12          13          14          15          16          17          18          19          20
 IAtWgt=           1           1           1           1           1           1           1           1           1           1
 AtmWgt=   1.0078250   1.0078250   1.0078250   1.0078250   1.0078250   1.0078250   1.0078250   1.0078250   1.0078250   1.0078250
 NucSpn=           1           1           1           1           1           1           1           1           1           1
 AtZEff=  -0.0000000  -0.0000000  -0.0000000  -0.0000000  -0.0000000  -0.0000000  -0.0000000  -0.0000000  -0.0000000  -0.0000000
 NQMom=    0.0000000   0.0000000   0.0000000   0.0000000   0.0000000   0.0000000   0.0000000   0.0000000   0.0000000   0.0000000
 NMagM=    2.7928460   2.7928460   2.7928460   2.7928460   2.7928460   2.7928460   2.7928460   2.7928460   2.7928460   2.7928460
 AtZNuc=   1.0000000   1.0000000   1.0000000   1.0000000   1.0000000   1.0000000   1.0000000   1.0000000   1.0000000   1.0000000

  Atom        21          22          23          24          25          26          27          28          29          30
 IAtWgt=          12          12          12          12          16           1           1           1           1           1
 AtmWgt=  12.0000000  12.0000000  12.0000000  12.0000000  15.9949146   1.0078250   1.0078250   1.0078250   1.0078250   1.0078250
 NucSpn=           0           0           0           0           0           1           1           1           1           1
 AtZEff=  -0.0000000  -0.0000000  -0.0000000  -0.0000000  -0.0000000  -0.0000000  -0.0000000  -0.0000000  -0.0000000  -0.0000000
 NQMom=    0.0000000   0.0000000   0.0000000   0.0000000   0.0000000   0.0000000   0.0000000   0.0000000   0.0000000   0.0000000
 NMagM=    0.0000000   0.0000000   0.0000000   0.0000000   0.0000000   2.7928460   2.7928460   2.7928460   2.7928460   2.7928460
 AtZNuc=   6.0000000   6.0000000   6.0000000   6.0000000   8.0000000   1.0000000   1.0000000   1.0000000   1.0000000   1.0000000

  Atom        31          32          33
 IAtWgt=           1           1           1
 AtmWgt=   1.0078250   1.0078250   1.0078250
 NucSpn=           1           1           1
 AtZEff=  -0.0000000  -0.0000000  -0.0000000
 NQMom=    0.0000000   0.0000000   0.0000000
 NMagM=    2.7928460   2.7928460   2.7928460
 AtZNuc=   1.0000000   1.0000000   1.0000000
 Leave Link  101 at Thu Jan  9 11:34:52 2025, MaxMem=  4026531840 cpu:              28.2 elap:               1.4
 (Enter /usr/local/intel/g16/l103.exe)

 GradGradGradGradGradGradGradGradGradGradGradGradGradGradGradGradGradGrad
 Berny optimization.
 Initialization pass.
                           ----------------------------
                           !    Initial Parameters    !
                           ! (Angstroms and Degrees)  !
 --------------------------                            --------------------------
 ! Name  Definition              Value          Derivative Info.                !
 --------------------------------------------------------------------------------
 ! R1    R(1,2)                  1.3239         estimate D2E/DX2                !
 ! R2    R(2,3)                  1.507          estimate D2E/DX2                !
 ! R3    R(2,4)                  1.5058         estimate D2E/DX2                !
 ! R4    R(3,5)                  1.5465         estimate D2E/DX2                !
 ! R5    R(3,6)                  1.5474         estimate D2E/DX2                !
 ! R6    R(3,21)                 1.5478         estimate D2E/DX2                !
 ! R7    R(4,7)                  1.5462         estimate D2E/DX2                !
 ! R8    R(4,8)                  1.5433         estimate D2E/DX2                !
 ! R9    R(4,24)                 1.5532         estimate D2E/DX2                !
 ! R10   R(5,9)                  1.095          estimate D2E/DX2                !
 ! R11   R(5,10)                 1.0945         estimate D2E/DX2                !
 ! R12   R(5,11)                 1.0911         estimate D2E/DX2                !
 ! R13   R(6,12)                 1.0955         estimate D2E/DX2                !
 ! R14   R(6,13)                 1.093          estimate D2E/DX2                !
 ! R15   R(6,14)                 1.0955         estimate D2E/DX2                !
 ! R16   R(7,15)                 1.0913         estimate D2E/DX2                !
 ! R17   R(7,16)                 1.0947         estimate D2E/DX2                !
 ! R18   R(7,17)                 1.0958         estimate D2E/DX2                !
 ! R19   R(8,18)                 1.0911         estimate D2E/DX2                !
 ! R20   R(8,19)                 1.0928         estimate D2E/DX2                !
 ! R21   R(8,20)                 1.0957         estimate D2E/DX2                !
 ! R22   R(21,22)                1.5359         estimate D2E/DX2                !
 ! R23   R(21,26)                1.0958         estimate D2E/DX2                !
 ! R24   R(21,27)                1.0979         estimate D2E/DX2                !
 ! R25   R(22,23)                1.5314         estimate D2E/DX2                !
 ! R26   R(22,25)                1.4623         estimate D2E/DX2                !
 ! R27   R(22,28)                1.0929         estimate D2E/DX2                !
 ! R28   R(23,24)                1.5348         estimate D2E/DX2                !
 ! R29   R(23,29)                1.0961         estimate D2E/DX2                !
 ! R30   R(23,30)                1.1008         estimate D2E/DX2                !
 ! R31   R(24,31)                1.0979         estimate D2E/DX2                !
 ! R32   R(24,32)                1.0969         estimate D2E/DX2                !
 ! R33   R(25,33)                0.9753         estimate D2E/DX2                !
 ! A1    A(1,2,3)              113.6962         estimate D2E/DX2                !
 ! A2    A(1,2,4)              117.4249         estimate D2E/DX2                !
 ! A3    A(3,2,4)              127.6846         estimate D2E/DX2                !
 ! A4    A(2,3,5)              106.8137         estimate D2E/DX2                !
 ! A5    A(2,3,6)              107.6658         estimate D2E/DX2                !
 ! A6    A(2,3,21)             115.1526         estimate D2E/DX2                !
 ! A7    A(5,3,6)              109.3119         estimate D2E/DX2                !
 ! A8    A(5,3,21)             109.3702         estimate D2E/DX2                !
 ! A9    A(6,3,21)             108.4088         estimate D2E/DX2                !
 ! A10   A(2,4,7)              110.8616         estimate D2E/DX2                !
 ! A11   A(2,4,8)              107.5489         estimate D2E/DX2                !
 ! A12   A(2,4,24)             110.3607         estimate D2E/DX2                !
 ! A13   A(7,4,8)              107.902          estimate D2E/DX2                !
 ! A14   A(7,4,24)             112.8521         estimate D2E/DX2                !
 ! A15   A(8,4,24)             107.0706         estimate D2E/DX2                !
 ! A16   A(3,5,9)              109.7219         estimate D2E/DX2                !
 ! A17   A(3,5,10)             111.3471         estimate D2E/DX2                !
 ! A18   A(3,5,11)             109.9129         estimate D2E/DX2                !
 ! A19   A(9,5,10)             108.5778         estimate D2E/DX2                !
 ! A20   A(9,5,11)             109.2268         estimate D2E/DX2                !
 ! A21   A(10,5,11)            108.006          estimate D2E/DX2                !
 ! A22   A(3,6,12)             110.0423         estimate D2E/DX2                !
 ! A23   A(3,6,13)             109.7033         estimate D2E/DX2                !
 ! A24   A(3,6,14)             111.0214         estimate D2E/DX2                !
 ! A25   A(12,6,13)            108.9173         estimate D2E/DX2                !
 ! A26   A(12,6,14)            108.4294         estimate D2E/DX2                !
 ! A27   A(13,6,14)            108.6804         estimate D2E/DX2                !
 ! A28   A(4,7,15)             113.4356         estimate D2E/DX2                !
 ! A29   A(4,7,16)             109.6916         estimate D2E/DX2                !
 ! A30   A(4,7,17)             109.3162         estimate D2E/DX2                !
 ! A31   A(15,7,16)            108.2461         estimate D2E/DX2                !
 ! A32   A(15,7,17)            107.6886         estimate D2E/DX2                !
 ! A33   A(16,7,17)            108.3261         estimate D2E/DX2                !
 ! A34   A(4,8,18)             111.3023         estimate D2E/DX2                !
 ! A35   A(4,8,19)             111.1839         estimate D2E/DX2                !
 ! A36   A(4,8,20)             108.5477         estimate D2E/DX2                !
 ! A37   A(18,8,19)            107.6516         estimate D2E/DX2                !
 ! A38   A(18,8,20)            109.0912         estimate D2E/DX2                !
 ! A39   A(19,8,20)            109.0205         estimate D2E/DX2                !
 ! A40   A(3,21,22)            118.2651         estimate D2E/DX2                !
 ! A41   A(3,21,26)            105.343          estimate D2E/DX2                !
 ! A42   A(3,21,27)            110.6947         estimate D2E/DX2                !
 ! A43   A(22,21,26)           106.5704         estimate D2E/DX2                !
 ! A44   A(22,21,27)           109.0573         estimate D2E/DX2                !
 ! A45   A(26,21,27)           106.1021         estimate D2E/DX2                !
 ! A46   A(21,22,23)           113.5302         estimate D2E/DX2                !
 ! A47   A(21,22,25)           109.3855         estimate D2E/DX2                !
 ! A48   A(21,22,28)           110.4966         estimate D2E/DX2                !
 ! A49   A(23,22,25)           109.8284         estimate D2E/DX2                !
 ! A50   A(23,22,28)           109.7956         estimate D2E/DX2                !
 ! A51   A(25,22,28)           103.3145         estimate D2E/DX2                !
 ! A52   A(22,23,24)           114.3891         estimate D2E/DX2                !
 ! A53   A(22,23,29)           107.5894         estimate D2E/DX2                !
 ! A54   A(22,23,30)           109.13           estimate D2E/DX2                !
 ! A55   A(24,23,29)           108.352          estimate D2E/DX2                !
 ! A56   A(24,23,30)           110.2622         estimate D2E/DX2                !
 ! A57   A(29,23,30)           106.812          estimate D2E/DX2                !
 ! A58   A(4,24,23)            118.5872         estimate D2E/DX2                !
 ! A59   A(4,24,31)            107.3237         estimate D2E/DX2                !
 ! A60   A(4,24,32)            106.7287         estimate D2E/DX2                !
 ! A61   A(23,24,31)           109.2758         estimate D2E/DX2                !
 ! A62   A(23,24,32)           107.708          estimate D2E/DX2                !
 ! A63   A(31,24,32)           106.6106         estimate D2E/DX2                !
 ! A64   A(22,25,33)           110.0787         estimate D2E/DX2                !
 ! D1    D(1,2,3,5)             52.2093         estimate D2E/DX2                !
 ! D2    D(1,2,3,6)            -65.1015         estimate D2E/DX2                !
 ! D3    D(1,2,3,21)           173.8552         estimate D2E/DX2                !
 ! D4    D(4,2,3,5)           -140.7297         estimate D2E/DX2                !
 ! D5    D(4,2,3,6)            101.9595         estimate D2E/DX2                !
 ! D6    D(4,2,3,21)           -19.0838         estimate D2E/DX2                !
 ! D7    D(1,2,4,7)            109.7671         estimate D2E/DX2                !
 ! D8    D(1,2,4,8)             -7.9774         estimate D2E/DX2                !
 ! D9    D(1,2,4,24)          -124.4491         estimate D2E/DX2                !
 ! D10   D(3,2,4,7)            -56.8772         estimate D2E/DX2                !
 ! D11   D(3,2,4,8)           -174.6217         estimate D2E/DX2                !
 ! D12   D(3,2,4,24)            68.9066         estimate D2E/DX2                !
 ! D13   D(2,3,5,9)           -177.5924         estimate D2E/DX2                !
 ! D14   D(2,3,5,10)            62.177          estimate D2E/DX2                !
 ! D15   D(2,3,5,11)           -57.4643         estimate D2E/DX2                !
 ! D16   D(6,3,5,9)            -61.373          estimate D2E/DX2                !
 ! D17   D(6,3,5,10)           178.3964         estimate D2E/DX2                !
 ! D18   D(6,3,5,11)            58.7551         estimate D2E/DX2                !
 ! D19   D(21,3,5,9)            57.1755         estimate D2E/DX2                !
 ! D20   D(21,3,5,10)          -63.0551         estimate D2E/DX2                !
 ! D21   D(21,3,5,11)          177.3036         estimate D2E/DX2                !
 ! D22   D(2,3,6,12)           176.0552         estimate D2E/DX2                !
 ! D23   D(2,3,6,13)            56.2397         estimate D2E/DX2                !
 ! D24   D(2,3,6,14)           -63.8984         estimate D2E/DX2                !
 ! D25   D(5,3,6,12)            60.3792         estimate D2E/DX2                !
 ! D26   D(5,3,6,13)           -59.4363         estimate D2E/DX2                !
 ! D27   D(5,3,6,14)          -179.5744         estimate D2E/DX2                !
 ! D28   D(21,3,6,12)          -58.7665         estimate D2E/DX2                !
 ! D29   D(21,3,6,13)         -178.582          estimate D2E/DX2                !
 ! D30   D(21,3,6,14)           61.2799         estimate D2E/DX2                !
 ! D31   D(2,3,21,22)          -51.1101         estimate D2E/DX2                !
 ! D32   D(2,3,21,26)         -170.0106         estimate D2E/DX2                !
 ! D33   D(2,3,21,27)           75.7164         estimate D2E/DX2                !
 ! D34   D(5,3,21,22)           69.1428         estimate D2E/DX2                !
 ! D35   D(5,3,21,26)          -49.7577         estimate D2E/DX2                !
 ! D36   D(5,3,21,27)         -164.0307         estimate D2E/DX2                !
 ! D37   D(6,3,21,22)         -171.7482         estimate D2E/DX2                !
 ! D38   D(6,3,21,26)           69.3513         estimate D2E/DX2                !
 ! D39   D(6,3,21,27)          -44.9217         estimate D2E/DX2                !
 ! D40   D(2,4,7,15)            60.9201         estimate D2E/DX2                !
 ! D41   D(2,4,7,16)           -60.25           estimate D2E/DX2                !
 ! D42   D(2,4,7,17)          -178.8909         estimate D2E/DX2                !
 ! D43   D(8,4,7,15)           178.449          estimate D2E/DX2                !
 ! D44   D(8,4,7,16)            57.2789         estimate D2E/DX2                !
 ! D45   D(8,4,7,17)           -61.362          estimate D2E/DX2                !
 ! D46   D(24,4,7,15)          -63.4585         estimate D2E/DX2                !
 ! D47   D(24,4,7,16)          175.3714         estimate D2E/DX2                !
 ! D48   D(24,4,7,17)           56.7305         estimate D2E/DX2                !
 ! D49   D(2,4,8,18)            59.2164         estimate D2E/DX2                !
 ! D50   D(2,4,8,19)           -60.7948         estimate D2E/DX2                !
 ! D51   D(2,4,8,20)           179.2907         estimate D2E/DX2                !
 ! D52   D(7,4,8,18)           -60.4304         estimate D2E/DX2                !
 ! D53   D(7,4,8,19)           179.5583         estimate D2E/DX2                !
 ! D54   D(7,4,8,20)            59.6439         estimate D2E/DX2                !
 ! D55   D(24,4,8,18)          177.826          estimate D2E/DX2                !
 ! D56   D(24,4,8,19)           57.8148         estimate D2E/DX2                !
 ! D57   D(24,4,8,20)          -62.0997         estimate D2E/DX2                !
 ! D58   D(2,4,24,23)          -73.0261         estimate D2E/DX2                !
 ! D59   D(2,4,24,31)           51.2918         estimate D2E/DX2                !
 ! D60   D(2,4,24,32)          165.2728         estimate D2E/DX2                !
 ! D61   D(7,4,24,23)           51.6264         estimate D2E/DX2                !
 ! D62   D(7,4,24,31)          175.9444         estimate D2E/DX2                !
 ! D63   D(7,4,24,32)          -70.0747         estimate D2E/DX2                !
 ! D64   D(8,4,24,23)          170.2047         estimate D2E/DX2                !
 ! D65   D(8,4,24,31)          -65.4774         estimate D2E/DX2                !
 ! D66   D(8,4,24,32)           48.5036         estimate D2E/DX2                !
 ! D67   D(3,21,22,23)          82.226          estimate D2E/DX2                !
 ! D68   D(3,21,22,25)        -154.7205         estimate D2E/DX2                !
 ! D69   D(3,21,22,28)         -41.6308         estimate D2E/DX2                !
 ! D70   D(26,21,22,23)       -159.5178         estimate D2E/DX2                !
 ! D71   D(26,21,22,25)        -36.4644         estimate D2E/DX2                !
 ! D72   D(26,21,22,28)         76.6254         estimate D2E/DX2                !
 ! D73   D(27,21,22,23)        -45.3799         estimate D2E/DX2                !
 ! D74   D(27,21,22,25)         77.6735         estimate D2E/DX2                !
 ! D75   D(27,21,22,28)       -169.2368         estimate D2E/DX2                !
 ! D76   D(21,22,23,24)        -68.2312         estimate D2E/DX2                !
 ! D77   D(21,22,23,29)        171.345          estimate D2E/DX2                !
 ! D78   D(21,22,23,30)         55.8066         estimate D2E/DX2                !
 ! D79   D(25,22,23,24)        168.959          estimate D2E/DX2                !
 ! D80   D(25,22,23,29)         48.5352         estimate D2E/DX2                !
 ! D81   D(25,22,23,30)        -67.0032         estimate D2E/DX2                !
 ! D82   D(28,22,23,24)         56.0062         estimate D2E/DX2                !
 ! D83   D(28,22,23,29)        -64.4176         estimate D2E/DX2                !
 ! D84   D(28,22,23,30)       -179.9559         estimate D2E/DX2                !
 ! D85   D(21,22,25,33)        -66.5442         estimate D2E/DX2                !
 ! D86   D(23,22,25,33)         58.68           estimate D2E/DX2                !
 ! D87   D(28,22,25,33)        175.7635         estimate D2E/DX2                !
 ! D88   D(22,23,24,4)          64.7204         estimate D2E/DX2                !
 ! D89   D(22,23,24,31)        -58.6344         estimate D2E/DX2                !
 ! D90   D(22,23,24,32)       -174.0747         estimate D2E/DX2                !
 ! D91   D(29,23,24,4)        -175.2806         estimate D2E/DX2                !
 ! D92   D(29,23,24,31)         61.3645         estimate D2E/DX2                !
 ! D93   D(29,23,24,32)        -54.0758         estimate D2E/DX2                !
 ! D94   D(30,23,24,4)         -58.7105         estimate D2E/DX2                !
 ! D95   D(30,23,24,31)        177.9347         estimate D2E/DX2                !
 ! D96   D(30,23,24,32)         62.4944         estimate D2E/DX2                !
 --------------------------------------------------------------------------------
 Trust Radius=3.00D-01 FncErr=1.00D-07 GrdErr=1.00D-06 EigMax=2.50D+02 EigMin=1.00D-04
 Number of steps in this run=    198 maximum allowed number of steps=    198.
 GradGradGradGradGradGradGradGradGradGradGradGradGradGradGradGradGradGrad

 Leave Link  103 at Thu Jan  9 11:34:52 2025, MaxMem=  4026531840 cpu:               0.4 elap:               0.0
 (Enter /usr/local/intel/g16/l202.exe)
                          Input orientation:                          
 ---------------------------------------------------------------------
 Center     Atomic      Atomic             Coordinates (Angstroms)
 Number     Number       Type             X           Y           Z
 ---------------------------------------------------------------------
      1          8           0        2.050392    1.153561   -0.809003
      2          7           0        1.022784    0.496179   -0.294566
      3          6           0       -0.131320    1.384205    0.093533
      4          6           0        1.237590   -0.947897    0.074029
      5          6           0       -0.465745    2.249512   -1.143822
      6          6           0        0.347791    2.300737    1.244595
      7          6           0        1.237322   -1.130170    1.609414
      8          6           0        2.628329   -1.360608   -0.452438
      9          1           0       -1.274416    2.946329   -0.899798
     10          1           0       -0.782098    1.630456   -1.989205
     11          1           0        0.415350    2.814984   -1.450961
     12          1           0       -0.441168    3.012636    1.510870
     13          1           0        1.234441    2.856262    0.928594
     14          1           0        0.599991    1.714287    2.134876
     15          1           0        0.298151   -0.836452    2.081186
     16          1           0        2.043454   -0.536063    2.051527
     17          1           0        1.414947   -2.184513    1.849287
     18          1           0        3.415569   -0.740695   -0.020706
     19          1           0        2.685245   -1.259351   -1.539026
     20          1           0        2.807106   -2.407097   -0.181469
     21          6           0       -1.406169    0.640222    0.559445
     22          6           0       -1.965457   -0.475371   -0.335950
     23          6           0       -1.259771   -1.821448   -0.148363
     24          6           0        0.193715   -1.849057   -0.640558
     25          8           0       -3.397962   -0.627073   -0.084722
     26          1           0       -2.183959    1.409504    0.622886
     27          1           0       -1.278209    0.251842    1.578313
     28          1           0       -1.924261   -0.179196   -1.387112
     29          1           0       -1.827764   -2.573936   -0.707360
     30          1           0       -1.308389   -2.109425    0.912953
     31          1           0        0.219603   -1.595656   -1.708541
     32          1           0        0.555661   -2.880961   -0.554251
     33          1           0       -3.545870   -0.958856    0.820380
 ---------------------------------------------------------------------
                    Distance matrix (angstroms):
                    1          2          3          4          5
     1  O    0.000000
     2  N    1.323924   0.000000
     3  C    2.372264   1.507039   0.000000
     4  C    2.420024   1.505775   2.704255   0.000000
     5  C    2.764807   2.451761   1.546494   3.822033   0.000000
     6  C    2.903813   2.465981   1.547424   3.565893   2.523688
     7  C    3.424215   2.513201   3.239314   1.546166   4.680064
     8  C    2.604265   2.459747   3.930362   1.543260   4.804609
     9  H    3.778440   3.412722   2.175685   4.735347   1.095012
    10  H    3.105367   2.723231   2.195894   3.870914   1.094524
    11  H    2.417809   2.661406   2.175187   4.142577   1.091064
    12  H    3.878897   3.425684   2.180972   4.535258   2.762309
    13  H    2.565972   2.666629   2.174760   3.898964   2.748397
    14  H    3.329339   2.750405   2.193365   3.426492   3.488856
    15  H    3.922205   2.818722   3.011067   2.218929   4.528508
    16  H    3.322275   2.758884   3.500116   2.174747   4.926029
    17  H    4.314283   3.454853   4.267243   2.170764   5.670651
    18  H    2.464412   2.707448   4.136263   2.189863   5.026661
    19  H    2.599638   2.719254   4.193647   2.189670   4.732552
    20  H    3.693873   3.409635   4.804575   2.158222   5.772494
    21  C    3.752863   2.578739   1.547845   3.122053   2.524942
    22  C    4.359385   3.142484   2.646986   3.263568   3.213531
    23  C    4.499367   3.256198   3.407070   2.655063   4.265458
    24  C    3.534309   2.511413   3.331444   1.553190   4.181678
    25  O    5.777526   4.566040   3.840308   4.649352   4.241972
    26  H    4.477225   3.458190   2.119948   4.191131   2.603676
    27  H    4.194277   2.976902   2.191386   3.167253   3.472867
    28  H    4.231822   3.214788   2.801994   3.566951   2.843428
    29  H    5.380024   4.209707   4.380209   3.556820   5.031028
    30  H    4.989351   3.698870   3.776558   2.921464   4.892924
    31  H    3.423325   2.649566   3.500027   2.152544   3.946381
    32  H    4.310045   3.419169   4.368433   2.143945   5.264277
    33  H    6.199624   4.922685   4.204449   4.841348   4.861984
                    6          7          8          9         10
     6  C    0.000000
     7  C    3.563072   0.000000
     8  C    4.635323   2.497846   0.000000
     9  H    2.765279   5.405813   5.829344   0.000000
    10  H    3.490471   4.964793   4.789481   1.777838   0.000000
    11  H    2.745002   5.060215   4.830103   1.782229   1.768246
    12  H    1.095518   4.471004   5.692245   2.551474   3.778516
    13  H    1.092983   4.044152   4.651039   3.105719   3.752676
    14  H    1.095504   2.961965   4.501481   3.773669   4.350315
    15  H    3.247199   1.091275   3.481913   5.066425   4.880641
    16  H    3.402036   1.094658   2.700332   5.643194   5.385635
    17  H    4.649940   1.095778   2.729295   6.412151   5.840806
    18  H    4.501395   2.748407   1.091069   6.030167   5.207471
    19  H    5.087874   3.467830   1.092779   5.811650   4.536090
    20  H    5.499599   2.702226   1.095685   6.770080   5.696677
    21  C    2.510601   3.350338   4.615669   2.732193   2.804576
    22  C    3.944111   3.804076   4.679753   3.536028   2.927131
    23  C    4.638642   3.130993   3.927105   4.826652   3.941131
    24  C    4.560519   2.582303   2.490244   5.021787   3.857210
    25  O    4.936580   4.960752   6.081897   4.235918   3.945407
    26  H    2.755100   4.373596   5.655790   2.346842   2.972718
    27  H    2.636895   2.870335   4.688815   3.660780   3.856668
    28  H    4.270617   4.458601   4.795355   3.229347   2.223037
    29  H    5.683802   4.104468   4.625356   5.551266   4.518125
    30  H    4.722547   2.815074   4.233529   5.371021   4.763005
    31  H    4.890738   3.501607   2.726720   4.849308   3.389687
    32  H    5.488994   2.865550   2.572507   6.117671   4.919510
    33  H    5.095635   4.850861   6.316819   4.834148   4.715585
                   11         12         13         14         15
    11  H    0.000000
    12  H    3.089520   0.000000
    13  H    2.516922   1.780776   0.000000
    14  H    3.755510   1.777387   1.778131   0.000000
    15  H    5.081612   3.960724   3.980106   2.569097   0.000000
    16  H    5.113478   4.365652   3.663789   2.674810   1.771213
    17  H    6.073368   5.529019   5.127345   3.993289   1.765865
    18  H    4.867217   5.595323   4.312376   4.312882   3.761039
    19  H    4.664803   6.109517   5.013208   5.166078   4.356948
    20  H    5.882367   6.541315   5.604325   5.217530   3.725774
    21  C    3.476960   2.732176   3.466976   2.767720   2.720472
    22  C    4.211642   4.230886   4.789384   4.181041   3.331193
    23  C    5.098950   5.176054   5.409427   4.601447   2.892789
    24  C    4.739109   5.354230   5.068074   4.534922   2.905885
    25  O    5.315610   4.953385   5.883841   5.137335   4.289085
    26  H    3.610072   2.529005   3.724517   3.182669   3.651277
    27  H    4.314434   2.885684   3.676758   2.444615   1.980448
    28  H    3.800391   4.559129   4.955189   4.728797   4.171354
    29  H    5.884298   6.168710   6.445192   5.688687   3.913356
    30  H    5.727929   5.229253   5.578914   4.444748   2.359279
    31  H    4.422489   5.660175   5.272945   5.086479   3.865823
    32  H    5.767804   6.323992   5.964503   5.324441   3.345423
    33  H    5.923860   5.088094   6.117042   5.105072   4.047359
                   16         17         18         19         20
    16  H    0.000000
    17  H    1.775756   0.000000
    18  H    2.493737   3.095799   0.000000
    19  H    3.718482   3.735003   1.762859   0.000000
    20  H    3.011678   2.472169   1.781283   1.781890   0.000000
    21  C    3.938255   4.195416   5.049026   4.975101   5.252313
    22  C    4.666379   4.373049   5.396778   4.867345   5.150999
    23  C    4.171693   3.358056   4.800326   4.220551   4.108962
    24  C    3.520342   2.793433   3.463095   2.713433   2.711454
    25  O    5.846439   5.415727   6.814779   6.286508   6.456060
    26  H    4.867984   5.231935   6.032601   5.958674   6.334363
    27  H    3.446472   3.641750   5.057029   5.264074   5.182334
    28  H    5.262543   5.064177   5.540409   4.736809   5.366838
    29  H    5.172109   4.147682   5.596857   4.773579   4.667592
    30  H    3.873844   2.880784   5.006088   4.762766   4.268919
    31  H    4.311297   3.799176   3.714020   2.494239   3.112163
    32  H    3.808169   2.645828   3.611715   2.852110   2.330776
    33  H    5.738904   5.212542   7.015458   6.669624   6.592527
                   21         22         23         24         25
    21  C    0.000000
    22  C    1.535931   0.000000
    23  C    2.565588   1.531374   0.000000
    24  C    3.193140   2.577173   1.534809   0.000000
    25  O    2.447085   1.462258   2.449988   3.834363   0.000000
    26  H    1.095800   2.125997   3.447898   4.227037   2.474300
    27  H    1.097864   2.159989   2.698200   3.391714   2.833995
    28  H    2.174615   1.092867   2.161721   2.798500   2.017079
    29  H    3.480424   2.135622   1.096053   2.148555   2.577494
    30  H    2.774002   2.159081   1.100766   2.176581   2.749371
    31  H    3.575758   2.813100   2.161871   1.097939   4.081877
    32  H    4.181845   3.491497   2.140819   1.096941   4.575107
    33  H    2.683926   2.017068   2.628455   4.112334   0.975278
                   26         27         28         29         30
    26  H    0.000000
    27  H    1.753113   0.000000
    28  H    2.575170   3.065440   0.000000
    29  H    4.214763   3.675777   2.491215   0.000000
    30  H    3.637805   2.453405   3.065189   1.763784   0.000000
    31  H    4.499294   4.057105   2.589561   2.480142   3.077491
    32  H    5.224869   4.210150   3.760745   2.407991   2.494522
    33  H    2.739149   2.680026   2.847895   2.809691   2.517678
                   31         32         33
    31  H    0.000000
    32  H    1.759923   0.000000
    33  H    4.580365   4.733567   0.000000
 Stoichiometry    C10H20NO2(2)
 Framework group  C1[X(C10H20NO2)]
 Deg. of freedom    93
 Full point group                 C1      NOp   1
 Largest Abelian subgroup         C1      NOp   1
 Largest concise Abelian subgroup C1      NOp   1
                         Standard orientation:                         
 ---------------------------------------------------------------------
 Center     Atomic      Atomic             Coordinates (Angstroms)
 Number     Number       Type             X           Y           Z
 ---------------------------------------------------------------------
      1          8           0        2.050392    1.153560   -0.809003
      2          7           0        1.022784    0.496179   -0.294566
      3          6           0       -0.131320    1.384205    0.093533
      4          6           0        1.237590   -0.947897    0.074029
      5          6           0       -0.465745    2.249512   -1.143822
      6          6           0        0.347791    2.300737    1.244595
      7          6           0        1.237322   -1.130170    1.609414
      8          6           0        2.628328   -1.360609   -0.452438
      9          1           0       -1.274416    2.946329   -0.899798
     10          1           0       -0.782098    1.630456   -1.989205
     11          1           0        0.415350    2.814984   -1.450961
     12          1           0       -0.441168    3.012636    1.510870
     13          1           0        1.234441    2.856262    0.928594
     14          1           0        0.599991    1.714287    2.134876
     15          1           0        0.298151   -0.836452    2.081186
     16          1           0        2.043454   -0.536064    2.051527
     17          1           0        1.414946   -2.184513    1.849287
     18          1           0        3.415569   -0.740696   -0.020706
     19          1           0        2.685244   -1.259352   -1.539026
     20          1           0        2.807105   -2.407098   -0.181469
     21          6           0       -1.406169    0.640222    0.559445
     22          6           0       -1.965457   -0.475371   -0.335950
     23          6           0       -1.259772   -1.821448   -0.148363
     24          6           0        0.193714   -1.849057   -0.640558
     25          8           0       -3.397962   -0.627072   -0.084722
     26          1           0       -2.183959    1.409504    0.622886
     27          1           0       -1.278209    0.251842    1.578313
     28          1           0       -1.924261   -0.179196   -1.387112
     29          1           0       -1.827765   -2.573936   -0.707360
     30          1           0       -1.308390   -2.109425    0.912953
     31          1           0        0.219602   -1.595656   -1.708541
     32          1           0        0.555660   -2.880961   -0.554251
     33          1           0       -3.545870   -0.958855    0.820380
 ---------------------------------------------------------------------
 Rotational constants (GHZ):           0.9680422           0.7472135           0.5377044
 Leave Link  202 at Thu Jan  9 11:34:53 2025, MaxMem=  4026531840 cpu:               0.1 elap:               0.0
 (Enter /usr/local/intel/g16/l301.exe)
 Standard basis: def2TZVP (5D, 7F)
 Ernie: Thresh=  0.10000D-02 Tol=  0.10000D-05 Strict=F.
 There are   588 symmetry adapted cartesian basis functions of A   symmetry.
 There are   523 symmetry adapted basis functions of A   symmetry.
   523 basis functions,   823 primitive gaussians,   588 cartesian basis functions
    52 alpha electrons       51 beta electrons
       nuclear repulsion energy       932.1043469222 Hartrees.
 IExCor= 4336 DFT=T Ex+Corr=M062X ExCW=0 ScaHFX=  0.540000
 ScaDFX=  1.000000  1.000000  1.000000  1.000000 ScalE2=  1.000000  1.000000
 IRadAn=      5 IRanWt=     -1 IRanGd=            0 ICorTp=0 IEmpDi=  4
 NAtoms=   33 NActive=   33 NUniq=   33 SFac= 1.00D+00 NAtFMM=   60 NAOKFM=F Big=F
 Integral buffers will be    131072 words long.
 Raffenetti 2 integral format.
 Two-electron integral symmetry is turned on.
 Leave Link  301 at Thu Jan  9 11:34:53 2025, MaxMem=  4026531840 cpu:               1.5 elap:               0.1
 (Enter /usr/local/intel/g16/l302.exe)
 NPDir=0 NMtPBC=     1 NCelOv=     1 NCel=       1 NClECP=     1 NCelD=      1
         NCelK=      1 NCelE2=     1 NClLst=     1 CellRange=     0.0.
 One-electron integrals computed using PRISM.
 One-electron integral symmetry used in STVInt
   1 Symmetry operations used in ECPInt.
 ECPInt:  NShTT=   24976 NPrTT=   72736 LenC2=   24114 LenP2D=   53971.
 LDataN:  DoStor=T MaxTD1= 6 Len=  172
 NBasis=   523 RedAO= T EigKep=  5.00D-05  NBF=   523
 NBsUse=   523 1.00D-06 EigRej= -1.00D+00 NBFU=   523
 Precomputing XC quadrature grid using
 IXCGrd= 4 IRadAn=           5 IRanWt=          -1 IRanGd=           0 AccXCQ= 0.00D+00.
 Generated NRdTot=       0 NPtTot=           0 NUsed=           0 NTot=          32
 NSgBfM=   584   584   584   584   584 MxSgAt=    33 MxSgA2=    33.
 Leave Link  302 at Thu Jan  9 11:34:54 2025, MaxMem=  4026531840 cpu:              24.7 elap:               1.2
 (Enter /usr/local/intel/g16/l303.exe)
 DipDrv:  MaxL=1.
 Leave Link  303 at Thu Jan  9 11:34:54 2025, MaxMem=  4026531840 cpu:               3.3 elap:               0.2
 (Enter /usr/local/intel/g16/l401.exe)
 ExpMin= 9.52D-02 ExpMax= 2.70D+04 ExpMxC= 9.22D+02 IAcc=3 IRadAn=         5 AccDes= 0.00D+00
 Harris functional with IExCor= 1009 and IRadAn=       5 diagonalized for initial guess.
 HarFok:  IExCor= 1009 AccDes= 0.00D+00 IRadAn=         5 IDoV= 1 UseB2=F ITyADJ=14
 ICtDFT=  3500011 ScaDFX=  1.000000  1.000000  1.000000  1.000000
 FoFCou: FMM=F IPFlag=           0 FMFlag=      100000 FMFlg1=           0
         NFxFlg=           0 DoJE=T BraDBF=F KetDBF=T FulRan=T
         wScrn=  0.000000 ICntrl=       500 IOpCl=  0 I1Cent=   200000004 NGrid=           0
         NMat0=    1 NMatS0=      1 NMatT0=    0 NMatD0=    1 NMtDS0=    0 NMtDT0=    0
 Petite list used in FoFCou.
 Harris En= -597.984066205123    
 JPrj=0 DoOrth=F DoCkMO=F.
 Initial guess <Sx>= 0.0000 <Sy>= 0.0000 <Sz>= 0.5000 <S**2>= 0.7500 S= 0.5000
 Leave Link  401 at Thu Jan  9 11:34:58 2025, MaxMem=  4026531840 cpu:              74.1 elap:               3.7
 (Enter /usr/local/intel/g16/l502.exe)
 Integral symmetry usage will be decided dynamically.
 UHF open shell SCF:
 Using DIIS extrapolation, IDIIS=  1040.
 NGot=  4026531840 LenX=  4025822370 LenY=  4025476038
 Requested convergence on RMS density matrix=1.00D-08 within 128 cycles.
 Requested convergence on MAX density matrix=1.00D-06.
 Requested convergence on             energy=1.00D-06.
 No special actions if energy rises.
 Fock matrices will be formed incrementally for  20 cycles.
 Integral accuracy reduced to 1.0D-05 until final iterations.

 Cycle   1  Pass 0  IDiag  1:
 FoFJK:  IHMeth= 1 ICntrl=       0 DoSepK=F KAlg= 0 I1Cent=           0 FoldK=F
 IRaf= 930000000 NMat=       1 IRICut=       1 DoRegI=T DoRafI=F ISym2E= 0 IDoP0=0 IntGTp=1.
 FoFCou: FMM=F IPFlag=           0 FMFlag=      100000 FMFlg1=           0
         NFxFlg=           0 DoJE=F BraDBF=F KetDBF=F FulRan=T
         wScrn=  0.000000 ICntrl=         0 IOpCl=  1 I1Cent=           0 NGrid=           0
         NMat0=    1 NMatS0=      1 NMatT0=    0 NMatD0=    1 NMtDS0=    0 NMtDT0=    0
 Symmetry not used in FoFCou.
 E= -597.712186586822    
 DIIS: error= 2.05D-02 at cycle   1 NSaved=   1.
 NSaved= 1 IEnMin= 1 EnMin= -597.712186586822     IErMin= 1 ErrMin= 2.05D-02
 ErrMax= 2.05D-02  0.00D+00 EMaxC= 1.00D-01 BMatC= 2.34D+00 BMatP= 2.34D+00
 IDIUse=3 WtCom= 7.95D-01 WtEn= 2.05D-01
 Coeff-Com:  0.100D+01
 Coeff-En:   0.100D+01
 Coeff:      0.100D+01
 Gap=     0.365 Goal=   None    Shift=    0.000
 Gap=     0.220 Goal=   None    Shift=    0.000
 GapD=    0.220 DampG=1.000 DampE=0.500 DampFc=0.5000 IDamp=-1.
 Damping current iteration by 5.00D-01
 RMSDP=3.37D-03 MaxDP=3.95D-01              OVMax= 1.70D-01

 Cycle   2  Pass 0  IDiag  1:
 RMSU=  1.68D-03    CP:  9.91D-01
 E= -597.949526143922     Delta-E=       -0.237339557100 Rises=F Damp=T
 DIIS: error= 4.78D-03 at cycle   2 NSaved=   2.
 NSaved= 2 IEnMin= 2 EnMin= -597.949526143922     IErMin= 2 ErrMin= 4.78D-03
 ErrMax= 4.78D-03  0.00D+00 EMaxC= 1.00D-01 BMatC= 1.76D-01 BMatP= 2.34D+00
 IDIUse=3 WtCom= 9.52D-01 WtEn= 4.78D-02
 Coeff-Com: -0.350D-01 0.104D+01
 Coeff-En:   0.000D+00 0.100D+01
 Coeff:     -0.334D-01 0.103D+01
 Gap=     0.336 Goal=   None    Shift=    0.000
 Gap=     0.321 Goal=   None    Shift=    0.000
 RMSDP=9.56D-04 MaxDP=5.97D-02 DE=-2.37D-01 OVMax= 1.32D-01

 Cycle   3  Pass 0  IDiag  1:
 RMSU=  9.53D-04    CP:  9.80D-01  9.82D-01
 E= -598.172966763965     Delta-E=       -0.223440620043 Rises=F Damp=F
 DIIS: error= 6.23D-03 at cycle   3 NSaved=   3.
 NSaved= 3 IEnMin= 3 EnMin= -598.172966763965     IErMin= 2 ErrMin= 4.78D-03
 ErrMax= 6.23D-03  0.00D+00 EMaxC= 1.00D-01 BMatC= 1.06D-01 BMatP= 1.76D-01
 IDIUse=3 WtCom= 9.38D-01 WtEn= 6.23D-02
 Coeff-Com: -0.698D-01 0.465D+00 0.605D+00
 Coeff-En:   0.000D+00 0.000D+00 0.100D+01
 Coeff:     -0.654D-01 0.436D+00 0.629D+00
 Gap=     0.325 Goal=   None    Shift=    0.000
 Gap=     0.294 Goal=   None    Shift=    0.000
 RMSDP=3.92D-04 MaxDP=2.78D-02 DE=-2.23D-01 OVMax= 8.16D-02

 Cycle   4  Pass 0  IDiag  1:
 RMSU=  3.65D-04    CP:  9.83D-01  1.06D+00  9.38D-01
 E= -598.186083919442     Delta-E=       -0.013117155477 Rises=F Damp=F
 DIIS: error= 3.18D-03 at cycle   4 NSaved=   4.
 NSaved= 4 IEnMin= 4 EnMin= -598.186083919442     IErMin= 4 ErrMin= 3.18D-03
 ErrMax= 3.18D-03  0.00D+00 EMaxC= 1.00D-01 BMatC= 3.47D-02 BMatP= 1.06D-01
 IDIUse=3 WtCom= 9.68D-01 WtEn= 3.18D-02
 Coeff-Com: -0.230D-01 0.681D-01 0.382D+00 0.573D+00
 Coeff-En:   0.000D+00 0.000D+00 0.269D+00 0.731D+00
 Coeff:     -0.222D-01 0.659D-01 0.378D+00 0.578D+00
 Gap=     0.317 Goal=   None    Shift=    0.000
 Gap=     0.306 Goal=   None    Shift=    0.000
 RMSDP=1.96D-04 MaxDP=1.35D-02 DE=-1.31D-02 OVMax= 2.06D-02

 Cycle   5  Pass 0  IDiag  1:
 RMSU=  1.16D-04    CP:  9.80D-01  1.04D+00  9.73D-01  5.90D-01
 E= -598.192484103774     Delta-E=       -0.006400184331 Rises=F Damp=F
 DIIS: error= 4.17D-04 at cycle   5 NSaved=   5.
 NSaved= 5 IEnMin= 5 EnMin= -598.192484103774     IErMin= 5 ErrMin= 4.17D-04
 ErrMax= 4.17D-04  0.00D+00 EMaxC= 1.00D-01 BMatC= 5.62D-04 BMatP= 3.47D-02
 IDIUse=3 WtCom= 9.96D-01 WtEn= 4.17D-03
 Coeff-Com: -0.424D-02 0.462D-02 0.121D+00 0.206D+00 0.673D+00
 Coeff-En:   0.000D+00 0.000D+00 0.000D+00 0.000D+00 0.100D+01
 Coeff:     -0.422D-02 0.460D-02 0.121D+00 0.205D+00 0.674D+00
 Gap=     0.314 Goal=   None    Shift=    0.000
 Gap=     0.306 Goal=   None    Shift=    0.000
 RMSDP=3.78D-05 MaxDP=2.22D-03 DE=-6.40D-03 OVMax= 7.77D-03

 Cycle   6  Pass 0  IDiag  1:
 RMSU=  3.01D-05    CP:  9.80D-01  1.03D+00  9.89D-01  6.29D-01  9.60D-01
 E= -598.192623038868     Delta-E=       -0.000138935095 Rises=F Damp=F
 DIIS: error= 2.56D-04 at cycle   6 NSaved=   6.
 NSaved= 6 IEnMin= 6 EnMin= -598.192623038868     IErMin= 6 ErrMin= 2.56D-04
 ErrMax= 2.56D-04  0.00D+00 EMaxC= 1.00D-01 BMatC= 1.40D-04 BMatP= 5.62D-04
 IDIUse=3 WtCom= 9.97D-01 WtEn= 2.56D-03
 Coeff-Com:  0.314D-02-0.108D-01-0.148D-01-0.335D-01 0.252D+00 0.804D+00
 Coeff-En:   0.000D+00 0.000D+00 0.000D+00 0.000D+00 0.000D+00 0.100D+01
 Coeff:      0.313D-02-0.108D-01-0.148D-01-0.335D-01 0.251D+00 0.805D+00
 Gap=     0.315 Goal=   None    Shift=    0.000
 Gap=     0.307 Goal=   None    Shift=    0.000
 RMSDP=2.64D-05 MaxDP=1.76D-03 DE=-1.39D-04 OVMax= 3.74D-03

 Cycle   7  Pass 0  IDiag  1:
 RMSU=  1.49D-05    CP:  9.80D-01  1.03D+00  9.95D-01  6.20D-01  1.13D+00
                    CP:  1.19D+00
 E= -598.192671180048     Delta-E=       -0.000048141180 Rises=F Damp=F
 DIIS: error= 9.35D-05 at cycle   7 NSaved=   7.
 NSaved= 7 IEnMin= 7 EnMin= -598.192671180048     IErMin= 7 ErrMin= 9.35D-05
 ErrMax= 9.35D-05  0.00D+00 EMaxC= 1.00D-01 BMatC= 2.19D-05 BMatP= 1.40D-04
 IDIUse=1 WtCom= 1.00D+00 WtEn= 0.00D+00
 Coeff-Com:  0.155D-02-0.266D-02-0.213D-01-0.538D-01-0.999D-01 0.554D-01
 Coeff-Com:  0.112D+01
 Coeff:      0.155D-02-0.266D-02-0.213D-01-0.538D-01-0.999D-01 0.554D-01
 Coeff:      0.112D+01
 Gap=     0.316 Goal=   None    Shift=    0.000
 Gap=     0.308 Goal=   None    Shift=    0.000
 RMSDP=1.86D-05 MaxDP=1.42D-03 DE=-4.81D-05 OVMax= 3.71D-03

 Cycle   8  Pass 0  IDiag  1:
 RMSU=  7.33D-06    CP:  9.80D-01  1.03D+00  9.98D-01  6.05D-01  1.24D+00
                    CP:  1.41D+00  1.35D+00
 E= -598.192685337479     Delta-E=       -0.000014157431 Rises=F Damp=F
 DIIS: error= 4.84D-05 at cycle   8 NSaved=   8.
 NSaved= 8 IEnMin= 8 EnMin= -598.192685337479     IErMin= 8 ErrMin= 4.84D-05
 ErrMax= 4.84D-05  0.00D+00 EMaxC= 1.00D-01 BMatC= 4.63D-06 BMatP= 2.19D-05
 IDIUse=1 WtCom= 1.00D+00 WtEn= 0.00D+00
 Coeff-Com:  0.186D-03 0.345D-03-0.424D-02-0.163D-01-0.602D-01-0.928D-01
 Coeff-Com:  0.364D+00 0.809D+00
 Coeff:      0.186D-03 0.345D-03-0.424D-02-0.163D-01-0.602D-01-0.928D-01
 Coeff:      0.364D+00 0.809D+00
 Gap=     0.316 Goal=   None    Shift=    0.000
 Gap=     0.308 Goal=   None    Shift=    0.000
 RMSDP=6.10D-06 MaxDP=4.46D-04 DE=-1.42D-05 OVMax= 1.18D-03

 Initial convergence to 1.0D-05 achieved.  Increase integral accuracy.
 Cycle   9  Pass 1  IDiag  1:
 E= -598.192679051479     Delta-E=        0.000006286000 Rises=F Damp=F
 DIIS: error= 6.88D-05 at cycle   1 NSaved=   1.
 NSaved= 1 IEnMin= 1 EnMin= -598.192679051479     IErMin= 1 ErrMin= 6.88D-05
 ErrMax= 6.88D-05  0.00D+00 EMaxC= 1.00D-01 BMatC= 1.86D-05 BMatP= 1.86D-05
 IDIUse=1 WtCom= 1.00D+00 WtEn= 0.00D+00
 Coeff-Com:  0.100D+01
 Coeff:      0.100D+01
 Gap=     0.316 Goal=   None    Shift=    0.000
 Gap=     0.308 Goal=   None    Shift=    0.000
 RMSDP=6.10D-06 MaxDP=4.46D-04 DE= 6.29D-06 OVMax= 2.89D-04

 Cycle  10  Pass 1  IDiag  1:
 RMSU=  4.89D-05    CP:  1.00D+00
 E= -598.192681178721     Delta-E=       -0.000002127241 Rises=F Damp=F
 DIIS: error= 2.09D-05 at cycle   2 NSaved=   2.
 NSaved= 2 IEnMin= 2 EnMin= -598.192681178721     IErMin= 2 ErrMin= 2.09D-05
 ErrMax= 2.09D-05  0.00D+00 EMaxC= 1.00D-01 BMatC= 1.64D-06 BMatP= 1.86D-05
 IDIUse=1 WtCom= 1.00D+00 WtEn= 0.00D+00
 Coeff-Com:  0.108D+00 0.892D+00
 Coeff:      0.108D+00 0.892D+00
 Gap=     0.316 Goal=   None    Shift=    0.000
 Gap=     0.308 Goal=   None    Shift=    0.000
 RMSDP=3.43D-06 MaxDP=2.53D-04 DE=-2.13D-06 OVMax= 5.23D-04

 Cycle  11  Pass 1  IDiag  1:
 RMSU=  3.02D-06    CP:  1.00D+00  1.03D+00
 E= -598.192681149654     Delta-E=        0.000000029067 Rises=F Damp=F
 DIIS: error= 2.14D-05 at cycle   3 NSaved=   3.
 NSaved= 3 IEnMin= 2 EnMin= -598.192681178721     IErMin= 2 ErrMin= 2.09D-05
 ErrMax= 2.14D-05  0.00D+00 EMaxC= 1.00D-01 BMatC= 2.63D-06 BMatP= 1.64D-06
 IDIUse=1 WtCom= 1.00D+00 WtEn= 0.00D+00
 Coeff-Com: -0.121D-01 0.566D+00 0.446D+00
 Coeff:     -0.121D-01 0.566D+00 0.446D+00
 Gap=     0.316 Goal=   None    Shift=    0.000
 Gap=     0.308 Goal=   None    Shift=    0.000
 RMSDP=1.84D-06 MaxDP=1.57D-04 DE= 2.91D-08 OVMax= 1.05D-04

 Cycle  12  Pass 1  IDiag  1:
 RMSU=  1.09D-06    CP:  1.00D+00  1.04D+00  5.38D-01
 E= -598.192681650284     Delta-E=       -0.000000500629 Rises=F Damp=F
 DIIS: error= 8.35D-06 at cycle   4 NSaved=   4.
 NSaved= 4 IEnMin= 4 EnMin= -598.192681650284     IErMin= 4 ErrMin= 8.35D-06
 ErrMax= 8.35D-06  0.00D+00 EMaxC= 1.00D-01 BMatC= 5.45D-08 BMatP= 1.64D-06
 IDIUse=1 WtCom= 1.00D+00 WtEn= 0.00D+00
 Coeff-Com: -0.810D-02 0.149D+00 0.105D+00 0.754D+00
 Coeff:     -0.810D-02 0.149D+00 0.105D+00 0.754D+00
 Gap=     0.316 Goal=   None    Shift=    0.000
 Gap=     0.308 Goal=   None    Shift=    0.000
 RMSDP=4.02D-07 MaxDP=4.02D-05 DE=-5.01D-07 OVMax= 1.40D-04

 Cycle  13  Pass 1  IDiag  1:
 RMSU=  2.94D-07    CP:  1.00D+00  1.04D+00  5.21D-01  1.24D+00
 E= -598.192681677273     Delta-E=       -0.000000026990 Rises=F Damp=F
 DIIS: error= 6.00D-06 at cycle   5 NSaved=   5.
 NSaved= 5 IEnMin= 5 EnMin= -598.192681677273     IErMin= 5 ErrMin= 6.00D-06
 ErrMax= 6.00D-06  0.00D+00 EMaxC= 1.00D-01 BMatC= 5.37D-08 BMatP= 5.45D-08
 IDIUse=1 WtCom= 1.00D+00 WtEn= 0.00D+00
 Coeff-Com:  0.581D-02-0.362D+00-0.345D+00 0.514D+00 0.119D+01
 Coeff:      0.581D-02-0.362D+00-0.345D+00 0.514D+00 0.119D+01
 Gap=     0.316 Goal=   None    Shift=    0.000
 Gap=     0.308 Goal=   None    Shift=    0.000
 RMSDP=8.59D-07 MaxDP=6.34D-05 DE=-2.70D-08 OVMax= 1.67D-04

 Cycle  14  Pass 1  IDiag  1:
 RMSU=  3.66D-07    CP:  1.00D+00  1.04D+00  5.07D-01  1.93D+00  1.60D+00
 E= -598.192681704874     Delta-E=       -0.000000027601 Rises=F Damp=F
 DIIS: error= 7.65D-07 at cycle   6 NSaved=   6.
 NSaved= 6 IEnMin= 6 EnMin= -598.192681704874     IErMin= 6 ErrMin= 7.65D-07
 ErrMax= 7.65D-07  0.00D+00 EMaxC= 1.00D-01 BMatC= 2.48D-09 BMatP= 5.37D-08
 IDIUse=1 WtCom= 1.00D+00 WtEn= 0.00D+00
 Coeff-Com:  0.319D-02-0.166D+00-0.158D+00 0.170D+00 0.485D+00 0.666D+00
 Coeff:      0.319D-02-0.166D+00-0.158D+00 0.170D+00 0.485D+00 0.666D+00
 Gap=     0.316 Goal=   None    Shift=    0.000
 Gap=     0.308 Goal=   None    Shift=    0.000
 RMSDP=1.27D-07 MaxDP=7.65D-06 DE=-2.76D-08 OVMax= 2.79D-05

 Cycle  15  Pass 1  IDiag  1:
 RMSU=  8.48D-08    CP:  1.00D+00  1.04D+00  4.99D-01  2.00D+00  1.71D+00
                    CP:  1.07D+00
 E= -598.192681705797     Delta-E=       -0.000000000922 Rises=F Damp=F
 DIIS: error= 2.51D-07 at cycle   7 NSaved=   7.
 NSaved= 7 IEnMin= 7 EnMin= -598.192681705797     IErMin= 7 ErrMin= 2.51D-07
 ErrMax= 2.51D-07  0.00D+00 EMaxC= 1.00D-01 BMatC= 2.98D-10 BMatP= 2.48D-09
 IDIUse=1 WtCom= 1.00D+00 WtEn= 0.00D+00
 Coeff-Com:  0.250D-04 0.931D-02 0.744D-02-0.292D-01-0.619D-01 0.220D+00
 Coeff-Com:  0.854D+00
 Coeff:      0.250D-04 0.931D-02 0.744D-02-0.292D-01-0.619D-01 0.220D+00
 Coeff:      0.854D+00
 Gap=     0.316 Goal=   None    Shift=    0.000
 Gap=     0.308 Goal=   None    Shift=    0.000
 RMSDP=5.96D-08 MaxDP=3.45D-06 DE=-9.22D-10 OVMax= 7.75D-06

 Cycle  16  Pass 1  IDiag  1:
 RMSU=  3.02D-08    CP:  1.00D+00  1.04D+00  4.95D-01  2.02D+00  1.75D+00
                    CP:  1.18D+00  1.03D+00
 E= -598.192681705908     Delta-E=       -0.000000000111 Rises=F Damp=F
 DIIS: error= 1.26D-07 at cycle   8 NSaved=   8.
 NSaved= 8 IEnMin= 8 EnMin= -598.192681705908     IErMin= 8 ErrMin= 1.26D-07
 ErrMax= 1.26D-07  0.00D+00 EMaxC= 1.00D-01 BMatC= 1.65D-11 BMatP= 2.98D-10
 IDIUse=1 WtCom= 1.00D+00 WtEn= 0.00D+00
 Coeff-Com: -0.213D-03 0.136D-01 0.125D-01-0.174D-01-0.497D-01 0.987D-02
 Coeff-Com:  0.197D+00 0.835D+00
 Coeff:     -0.213D-03 0.136D-01 0.125D-01-0.174D-01-0.497D-01 0.987D-02
 Coeff:      0.197D+00 0.835D+00
 Gap=     0.316 Goal=   None    Shift=    0.000
 Gap=     0.308 Goal=   None    Shift=    0.000
 RMSDP=1.58D-08 MaxDP=1.00D-06 DE=-1.11D-10 OVMax= 3.30D-06

 Cycle  17  Pass 1  IDiag  1:
 RMSU=  9.42D-09    CP:  1.00D+00  1.04D+00  4.94D-01  2.02D+00  1.75D+00
                    CP:  1.21D+00  1.10D+00  1.24D+00
 E= -598.192681705915     Delta-E=       -0.000000000008 Rises=F Damp=F
 DIIS: error= 7.83D-08 at cycle   9 NSaved=   9.
 NSaved= 9 IEnMin= 9 EnMin= -598.192681705915     IErMin= 9 ErrMin= 7.83D-08
 ErrMax= 7.83D-08  0.00D+00 EMaxC= 1.00D-01 BMatC= 4.29D-12 BMatP= 1.65D-11
 IDIUse=1 WtCom= 1.00D+00 WtEn= 0.00D+00
 Coeff-Com: -0.612D-04 0.252D-02 0.247D-02-0.961D-03-0.543D-02-0.261D-01
 Coeff-Com: -0.630D-01 0.212D+00 0.879D+00
 Coeff:     -0.612D-04 0.252D-02 0.247D-02-0.961D-03-0.543D-02-0.261D-01
 Coeff:     -0.630D-01 0.212D+00 0.879D+00
 Gap=     0.316 Goal=   None    Shift=    0.000
 Gap=     0.308 Goal=   None    Shift=    0.000
 RMSDP=7.56D-09 MaxDP=4.34D-07 DE=-7.50D-12 OVMax= 2.70D-06

 SCF Done:  E(UM062X) =  -598.192681706     A.U. after   17 cycles
            NFock= 17  Conv=0.76D-08     -V/T= 2.0059
 <Sx>= 0.0000 <Sy>= 0.0000 <Sz>= 0.5000 <S**2>= 0.7563 S= 0.5031
 <L.S>=  0.00000000000    
 KE= 5.946677438504D+02 PE=-3.256926492905D+03 EE= 1.131961720427D+03
 Annihilation of the first spin contaminant:
 S**2 before annihilation     0.7563,   after     0.7500
 Leave Link  502 at Thu Jan  9 11:41:45 2025, MaxMem=  4026531840 cpu:            8127.2 elap:             406.5
 (Enter /usr/local/intel/g16/l601.exe)
 Copying SCF densities to generalized density rwf, IOpCl= 1 IROHF=0.

 **********************************************************************

            Population analysis using the SCF Density.

 **********************************************************************

 Orbital symmetries:
 Alpha Orbitals:
       Occupied  (A) (A) (A) (A) (A) (A) (A) (A) (A) (A) (A) (A)
                 (A) (A) (A) (A) (A) (A) (A) (A) (A) (A) (A) (A)
                 (A) (A) (A) (A) (A) (A) (A) (A) (A) (A) (A) (A)
                 (A) (A) (A) (A) (A) (A) (A) (A) (A) (A) (A) (A)
                 (A) (A) (A) (A)
       Virtual   (A) (A) (A) (A) (A) (A) (A) (A) (A) (A) (A) (A)
                 (A) (A) (A) (A) (A) (A) (A) (A) (A) (A) (A) (A)
                 (A) (A) (A) (A) (A) (A) (A) (A) (A) (A) (A) (A)
                 (A) (A) (A) (A) (A) (A) (A) (A) (A) (A) (A) (A)
                 (A) (A) (A) (A) (A) (A) (A) (A) (A) (A) (A) (A)
                 (A) (A) (A) (A) (A) (A) (A) (A) (A) (A) (A) (A)
                 (A) (A) (A) (A) (A) (A) (A) (A) (A) (A) (A) (A)
                 (A) (A) (A) (A) (A) (A) (A) (A) (A) (A) (A) (A)
                 (A) (A) (A) (A) (A) (A) (A) (A) (A) (A) (A) (A)
                 (A) (A) (A) (A) (A) (A) (A) (A) (A) (A) (A) (A)
                 (A) (A) (A) (A) (A) (A) (A) (A) (A) (A) (A) (A)
                 (A) (A) (A) (A) (A) (A) (A) (A) (A) (A) (A) (A)
                 (A) (A) (A) (A) (A) (A) (A) (A) (A) (A) (A) (A)
                 (A) (A) (A) (A) (A) (A) (A) (A) (A) (A) (A) (A)
                 (A) (A) (A) (A) (A) (A) (A) (A) (A) (A) (A) (A)
                 (A) (A) (A) (A) (A) (A) (A) (A) (A) (A) (A) (A)
                 (A) (A) (A) (A) (A) (A) (A) (A) (A) (A) (A) (A)
                 (A) (A) (A) (A) (A) (A) (A) (A) (A) (A) (A) (A)
                 (A) (A) (A) (A) (A) (A) (A) (A) (A) (A) (A) (A)
                 (A) (A) (A) (A) (A) (A) (A) (A) (A) (A) (A) (A)
                 (A) (A) (A) (A) (A) (A) (A) (A) (A) (A) (A) (A)
                 (A) (A) (A) (A) (A) (A) (A) (A) (A) (A) (A) (A)
                 (A) (A) (A) (A) (A) (A) (A) (A) (A) (A) (A) (A)
                 (A) (A) (A) (A) (A) (A) (A) (A) (A) (A) (A) (A)
                 (A) (A) (A) (A) (A) (A) (A) (A) (A) (A) (A) (A)
                 (A) (A) (A) (A) (A) (A) (A) (A) (A) (A) (A) (A)
                 (A) (A) (A) (A) (A) (A) (A) (A) (A) (A) (A) (A)
                 (A) (A) (A) (A) (A) (A) (A) (A) (A) (A) (A) (A)
                 (A) (A) (A) (A) (A) (A) (A) (A) (A) (A) (A) (A)
                 (A) (A) (A) (A) (A) (A) (A) (A) (A) (A) (A) (A)
                 (A) (A) (A) (A) (A) (A) (A) (A) (A) (A) (A) (A)
                 (A) (A) (A) (A) (A) (A) (A) (A) (A) (A) (A) (A)
                 (A) (A) (A) (A) (A) (A) (A) (A) (A) (A) (A) (A)
                 (A) (A) (A) (A) (A) (A) (A) (A) (A) (A) (A) (A)
                 (A) (A) (A) (A) (A) (A) (A) (A) (A) (A) (A) (A)
                 (A) (A) (A) (A) (A) (A) (A) (A) (A) (A) (A) (A)
                 (A) (A) (A) (A) (A) (A) (A) (A) (A) (A) (A) (A)
                 (A) (A) (A) (A) (A) (A) (A) (A) (A) (A) (A) (A)
                 (A) (A) (A) (A) (A) (A) (A) (A) (A) (A) (A) (A)
                 (A) (A) (A)
 Beta  Orbitals:
       Occupied  (A) (A) (A) (A) (A) (A) (A) (A) (A) (A) (A) (A)
                 (A) (A) (A) (A) (A) (A) (A) (A) (A) (A) (A) (A)
                 (A) (A) (A) (A) (A) (A) (A) (A) (A) (A) (A) (A)
                 (A) (A) (A) (A) (A) (A) (A) (A) (A) (A) (A) (A)
                 (A) (A) (A)
       Virtual   (A) (A) (A) (A) (A) (A) (A) (A) (A) (A) (A) (A)
                 (A) (A) (A) (A) (A) (A) (A) (A) (A) (A) (A) (A)
                 (A) (A) (A) (A) (A) (A) (A) (A) (A) (A) (A) (A)
                 (A) (A) (A) (A) (A) (A) (A) (A) (A) (A) (A) (A)
                 (A) (A) (A) (A) (A) (A) (A) (A) (A) (A) (A) (A)
                 (A) (A) (A) (A) (A) (A) (A) (A) (A) (A) (A) (A)
                 (A) (A) (A) (A) (A) (A) (A) (A) (A) (A) (A) (A)
                 (A) (A) (A) (A) (A) (A) (A) (A) (A) (A) (A) (A)
                 (A) (A) (A) (A) (A) (A) (A) (A) (A) (A) (A) (A)
                 (A) (A) (A) (A) (A) (A) (A) (A) (A) (A) (A) (A)
                 (A) (A) (A) (A) (A) (A) (A) (A) (A) (A) (A) (A)
                 (A) (A) (A) (A) (A) (A) (A) (A) (A) (A) (A) (A)
                 (A) (A) (A) (A) (A) (A) (A) (A) (A) (A) (A) (A)
                 (A) (A) (A) (A) (A) (A) (A) (A) (A) (A) (A) (A)
                 (A) (A) (A) (A) (A) (A) (A) (A) (A) (A) (A) (A)
                 (A) (A) (A) (A) (A) (A) (A) (A) (A) (A) (A) (A)
                 (A) (A) (A) (A) (A) (A) (A) (A) (A) (A) (A) (A)
                 (A) (A) (A) (A) (A) (A) (A) (A) (A) (A) (A) (A)
                 (A) (A) (A) (A) (A) (A) (A) (A) (A) (A) (A) (A)
                 (A) (A) (A) (A) (A) (A) (A) (A) (A) (A) (A) (A)
                 (A) (A) (A) (A) (A) (A) (A) (A) (A) (A) (A) (A)
                 (A) (A) (A) (A) (A) (A) (A) (A) (A) (A) (A) (A)
                 (A) (A) (A) (A) (A) (A) (A) (A) (A) (A) (A) (A)
                 (A) (A) (A) (A) (A) (A) (A) (A) (A) (A) (A) (A)
                 (A) (A) (A) (A) (A) (A) (A) (A) (A) (A) (A) (A)
                 (A) (A) (A) (A) (A) (A) (A) (A) (A) (A) (A) (A)
                 (A) (A) (A) (A) (A) (A) (A) (A) (A) (A) (A) (A)
                 (A) (A) (A) (A) (A) (A) (A) (A) (A) (A) (A) (A)
                 (A) (A) (A) (A) (A) (A) (A) (A) (A) (A) (A) (A)
                 (A) (A) (A) (A) (A) (A) (A) (A) (A) (A) (A) (A)
                 (A) (A) (A) (A) (A) (A) (A) (A) (A) (A) (A) (A)
                 (A) (A) (A) (A) (A) (A) (A) (A) (A) (A) (A) (A)
                 (A) (A) (A) (A) (A) (A) (A) (A) (A) (A) (A) (A)
                 (A) (A) (A) (A) (A) (A) (A) (A) (A) (A) (A) (A)
                 (A) (A) (A) (A) (A) (A) (A) (A) (A) (A) (A) (A)
                 (A) (A) (A) (A) (A) (A) (A) (A) (A) (A) (A) (A)
                 (A) (A) (A) (A) (A) (A) (A) (A) (A) (A) (A) (A)
                 (A) (A) (A) (A) (A) (A) (A) (A) (A) (A) (A) (A)
                 (A) (A) (A) (A) (A) (A) (A) (A) (A) (A) (A) (A)
                 (A) (A) (A) (A)
 The electronic state is 2-A.
 Alpha  occ. eigenvalues --  -19.62651 -19.62333 -14.83389 -10.59814 -10.59773
 Alpha  occ. eigenvalues --  -10.59716 -10.54779 -10.54596 -10.54391 -10.54036
 Alpha  occ. eigenvalues --  -10.53035 -10.52623 -10.52542  -1.19095  -1.13490
 Alpha  occ. eigenvalues --   -0.96833  -0.92714  -0.88356  -0.82129  -0.81245
 Alpha  occ. eigenvalues --   -0.78999  -0.78147  -0.74350  -0.69775  -0.66965
 Alpha  occ. eigenvalues --   -0.59939  -0.58848  -0.57489  -0.55299  -0.54561
 Alpha  occ. eigenvalues --   -0.53004  -0.51696  -0.50877  -0.49474  -0.48298
 Alpha  occ. eigenvalues --   -0.47568  -0.46644  -0.46286  -0.45627  -0.45263
 Alpha  occ. eigenvalues --   -0.44159  -0.43267  -0.42984  -0.42447  -0.41531
 Alpha  occ. eigenvalues --   -0.40038  -0.39372  -0.38402  -0.37932  -0.35002
 Alpha  occ. eigenvalues --   -0.33537  -0.26465
 Alpha virt. eigenvalues --    0.05103   0.05736   0.07769   0.08001   0.08822
 Alpha virt. eigenvalues --    0.10194   0.11108   0.11619   0.12278   0.12733
 Alpha virt. eigenvalues --    0.13267   0.14061   0.14987   0.15063   0.16155
 Alpha virt. eigenvalues --    0.16667   0.17250   0.17680   0.18049   0.18538
 Alpha virt. eigenvalues --    0.19091   0.19199   0.19946   0.20526   0.20727
 Alpha virt. eigenvalues --    0.21723   0.22332   0.23276   0.23572   0.24264
 Alpha virt. eigenvalues --    0.24805   0.26125   0.26680   0.27460   0.27995
 Alpha virt. eigenvalues --    0.29234   0.30445   0.30940   0.32744   0.33386
 Alpha virt. eigenvalues --    0.34607   0.35071   0.35254   0.35753   0.37241
 Alpha virt. eigenvalues --    0.38030   0.38341   0.39252   0.40532   0.40733
 Alpha virt. eigenvalues --    0.40919   0.41813   0.42520   0.43195   0.43338
 Alpha virt. eigenvalues --    0.44571   0.45153   0.45235   0.45886   0.46341
 Alpha virt. eigenvalues --    0.46643   0.47535   0.47716   0.48258   0.48681
 Alpha virt. eigenvalues --    0.48935   0.49336   0.49985   0.50243   0.50853
 Alpha virt. eigenvalues --    0.51006   0.51336   0.52313   0.52620   0.53344
 Alpha virt. eigenvalues --    0.53533   0.54189   0.54747   0.56044   0.56528
 Alpha virt. eigenvalues --    0.58358   0.59176   0.59402   0.60764   0.63005
 Alpha virt. eigenvalues --    0.63688   0.64215   0.64756   0.66578   0.67305
 Alpha virt. eigenvalues --    0.68041   0.68485   0.70538   0.72123   0.74025
 Alpha virt. eigenvalues --    0.74226   0.76415   0.77959   0.78458   0.80018
 Alpha virt. eigenvalues --    0.81446   0.82914   0.83713   0.85166   0.85873
 Alpha virt. eigenvalues --    0.86688   0.88342   0.88564   0.89580   0.89985
 Alpha virt. eigenvalues --    0.92185   0.92591   0.93369   0.93569   0.95309
 Alpha virt. eigenvalues --    0.96263   0.98197   0.99288   1.00501   1.02796
 Alpha virt. eigenvalues --    1.03726   1.04700   1.06459   1.06990   1.07882
 Alpha virt. eigenvalues --    1.08733   1.09585   1.10358   1.11174   1.13950
 Alpha virt. eigenvalues --    1.15051   1.16630   1.17716   1.18623   1.19090
 Alpha virt. eigenvalues --    1.19270   1.22312   1.22390   1.23021   1.23987
 Alpha virt. eigenvalues --    1.25624   1.26216   1.28993   1.29760   1.30204
 Alpha virt. eigenvalues --    1.32632   1.34174   1.34538   1.37237   1.38002
 Alpha virt. eigenvalues --    1.38748   1.40718   1.43045   1.44460   1.45832
 Alpha virt. eigenvalues --    1.47881   1.49385   1.51490   1.53562   1.54901
 Alpha virt. eigenvalues --    1.55838   1.57491   1.59593   1.59773   1.60236
 Alpha virt. eigenvalues --    1.60639   1.61048   1.62576   1.63153   1.64153
 Alpha virt. eigenvalues --    1.65063   1.65547   1.66017   1.66515   1.67369
 Alpha virt. eigenvalues --    1.67576   1.67781   1.68602   1.68943   1.69298
 Alpha virt. eigenvalues --    1.71033   1.72631   1.72833   1.73111   1.74737
 Alpha virt. eigenvalues --    1.76747   1.77703   1.79006   1.80008   1.81758
 Alpha virt. eigenvalues --    1.82106   1.85473   1.87778   1.88281   1.90515
 Alpha virt. eigenvalues --    1.91703   1.93310   1.93960   1.95879   1.96724
 Alpha virt. eigenvalues --    1.97555   1.99152   2.00032   2.01979   2.02894
 Alpha virt. eigenvalues --    2.03888   2.05177   2.07938   2.08591   2.09931
 Alpha virt. eigenvalues --    2.11322   2.11912   2.12373   2.14137   2.15728
 Alpha virt. eigenvalues --    2.16330   2.17007   2.19417   2.20241   2.20655
 Alpha virt. eigenvalues --    2.22099   2.22687   2.24860   2.25954   2.27200
 Alpha virt. eigenvalues --    2.27921   2.28031   2.30770   2.32296   2.32554
 Alpha virt. eigenvalues --    2.33970   2.34429   2.35325   2.36337   2.36883
 Alpha virt. eigenvalues --    2.37526   2.38258   2.38812   2.39481   2.40250
 Alpha virt. eigenvalues --    2.42360   2.42519   2.44247   2.44962   2.45843
 Alpha virt. eigenvalues --    2.46562   2.48681   2.49225   2.50140   2.53211
 Alpha virt. eigenvalues --    2.53437   2.54208   2.54995   2.55881   2.57049
 Alpha virt. eigenvalues --    2.57162   2.57698   2.58564   2.59368   2.60516
 Alpha virt. eigenvalues --    2.60828   2.61020   2.63006   2.63775   2.64352
 Alpha virt. eigenvalues --    2.65218   2.66479   2.67383   2.68268   2.69434
 Alpha virt. eigenvalues --    2.70255   2.71060   2.71861   2.72929   2.73914
 Alpha virt. eigenvalues --    2.74820   2.75512   2.75961   2.77708   2.78333
 Alpha virt. eigenvalues --    2.78584   2.81190   2.81995   2.82949   2.84147
 Alpha virt. eigenvalues --    2.85106   2.86652   2.88547   2.89717   2.90010
 Alpha virt. eigenvalues --    2.93174   2.93474   2.95657   2.96241   2.99319
 Alpha virt. eigenvalues --    2.99961   3.02153   3.03959   3.06531   3.07343
 Alpha virt. eigenvalues --    3.07627   3.08961   3.09742   3.12538   3.13574
 Alpha virt. eigenvalues --    3.15591   3.16045   3.16364   3.18108   3.19079
 Alpha virt. eigenvalues --    3.19811   3.22800   3.22995   3.24219   3.24920
 Alpha virt. eigenvalues --    3.25478   3.26059   3.27365   3.27592   3.30491
 Alpha virt. eigenvalues --    3.30682   3.31290   3.31725   3.32939   3.34321
 Alpha virt. eigenvalues --    3.35806   3.36427   3.37448   3.38006   3.38652
 Alpha virt. eigenvalues --    3.39523   3.39637   3.40755   3.41504   3.42593
 Alpha virt. eigenvalues --    3.43056   3.45039   3.45848   3.46778   3.47494
 Alpha virt. eigenvalues --    3.49176   3.49989   3.51660   3.52076   3.52926
 Alpha virt. eigenvalues --    3.55430   3.55819   3.57141   3.58677   3.60259
 Alpha virt. eigenvalues --    3.62780   3.63711   3.64612   3.66401   3.67438
 Alpha virt. eigenvalues --    3.67816   3.69000   3.71697   3.72318   3.73696
 Alpha virt. eigenvalues --    3.74508   3.77064   3.78493   3.79923   3.81920
 Alpha virt. eigenvalues --    3.83627   3.88883   3.90679   3.91401   3.94925
 Alpha virt. eigenvalues --    3.95841   3.97314   3.99012   4.00307   4.02416
 Alpha virt. eigenvalues --    4.04265   4.05338   4.06355   4.07550   4.08131
 Alpha virt. eigenvalues --    4.09977   4.12592   4.13501   4.13631   4.16889
 Alpha virt. eigenvalues --    4.17547   4.20191   4.20364   4.22475   4.25167
 Alpha virt. eigenvalues --    4.26128   4.28913   4.31906   4.32758   4.34914
 Alpha virt. eigenvalues --    4.36852   4.37956   4.39428   4.40018   4.41636
 Alpha virt. eigenvalues --    4.42980   4.44254   4.44797   4.46964   4.47473
 Alpha virt. eigenvalues --    4.48703   4.52515   4.53157   4.55287   4.62495
 Alpha virt. eigenvalues --    4.63881   4.66515   4.69720   4.71406   4.72594
 Alpha virt. eigenvalues --    4.77230   4.80800   4.84362   4.87036   4.89584
 Alpha virt. eigenvalues --    4.90329   4.94670   4.96508   4.99297   5.06235
 Alpha virt. eigenvalues --    5.06327   5.09552   5.12934   5.17947   5.24816
 Alpha virt. eigenvalues --    5.26137   5.29204   5.33469   5.35177   5.44618
 Alpha virt. eigenvalues --    5.47779   5.49854   5.51588   5.60484   5.72443
 Alpha virt. eigenvalues --    5.73870   5.77588   5.81556   5.84133   6.10458
 Alpha virt. eigenvalues --    6.26778   6.30767   6.38846   6.46200   6.47368
 Alpha virt. eigenvalues --    6.69341   6.81228   6.81453   6.95317   6.98814
 Alpha virt. eigenvalues --    7.03009   7.12700   7.63646  22.51212  22.52362
 Alpha virt. eigenvalues --   22.52820  22.57981  22.63592  22.64386  22.72496
 Alpha virt. eigenvalues --   22.74337  22.78944  22.83697  32.98841  44.09641
 Alpha virt. eigenvalues --   44.14942
  Beta  occ. eigenvalues --  -19.62651 -19.61233 -14.82577 -10.59850 -10.59774
  Beta  occ. eigenvalues --  -10.59753 -10.54751 -10.54596 -10.54391 -10.54001
  Beta  occ. eigenvalues --  -10.53004 -10.52623 -10.52525  -1.15999  -1.13490
  Beta  occ. eigenvalues --   -0.95584  -0.92557  -0.87816  -0.81335  -0.80206
  Beta  occ. eigenvalues --   -0.78858  -0.78029  -0.74158  -0.69610  -0.66606
  Beta  occ. eigenvalues --   -0.59223  -0.58561  -0.57043  -0.54321  -0.53097
  Beta  occ. eigenvalues --   -0.52660  -0.51412  -0.49812  -0.49186  -0.47740
  Beta  occ. eigenvalues --   -0.47207  -0.46293  -0.46028  -0.45474  -0.44870
  Beta  occ. eigenvalues --   -0.43130  -0.42830  -0.42406  -0.42205  -0.40613
  Beta  occ. eigenvalues --   -0.39233  -0.38643  -0.37896  -0.35822  -0.34864
  Beta  occ. eigenvalues --   -0.31773
  Beta virt. eigenvalues --   -0.00976   0.05113   0.05822   0.07787   0.08047
  Beta virt. eigenvalues --    0.08972   0.10232   0.11145   0.11684   0.12257
  Beta virt. eigenvalues --    0.12928   0.13384   0.14181   0.15001   0.15224
  Beta virt. eigenvalues --    0.16256   0.16754   0.17315   0.17693   0.18082
  Beta virt. eigenvalues --    0.18724   0.19167   0.19321   0.20088   0.20702
  Beta virt. eigenvalues --    0.20821   0.21863   0.22406   0.23315   0.23686
  Beta virt. eigenvalues --    0.24331   0.24914   0.26259   0.26942   0.27708
  Beta virt. eigenvalues --    0.28253   0.29311   0.30630   0.31047   0.32879
  Beta virt. eigenvalues --    0.33598   0.34776   0.35172   0.35299   0.36370
  Beta virt. eigenvalues --    0.37507   0.38098   0.38428   0.39256   0.40600
  Beta virt. eigenvalues --    0.40834   0.41141   0.41803   0.42593   0.43343
  Beta virt. eigenvalues --    0.43380   0.44578   0.45225   0.45345   0.45930
  Beta virt. eigenvalues --    0.46447   0.46695   0.47570   0.47759   0.48307
  Beta virt. eigenvalues --    0.48694   0.48998   0.49435   0.50038   0.50448
  Beta virt. eigenvalues --    0.50888   0.51017   0.51389   0.52371   0.52723
  Beta virt. eigenvalues --    0.53528   0.53637   0.54239   0.55065   0.56072
  Beta virt. eigenvalues --    0.56587   0.58554   0.59299   0.59565   0.60836
  Beta virt. eigenvalues --    0.63281   0.63989   0.64321   0.64996   0.66851
  Beta virt. eigenvalues --    0.67445   0.68431   0.68749   0.70715   0.72257
  Beta virt. eigenvalues --    0.74090   0.74278   0.76470   0.78129   0.78563
  Beta virt. eigenvalues --    0.80118   0.81562   0.83077   0.83832   0.85278
  Beta virt. eigenvalues --    0.85959   0.86870   0.88418   0.88679   0.89700
  Beta virt. eigenvalues --    0.90076   0.92203   0.92642   0.93433   0.93738
  Beta virt. eigenvalues --    0.95383   0.96396   0.98310   0.99486   1.00630
  Beta virt. eigenvalues --    1.02850   1.03850   1.04797   1.06517   1.07157
  Beta virt. eigenvalues --    1.07947   1.08820   1.09970   1.10545   1.11264
  Beta virt. eigenvalues --    1.14035   1.15161   1.16724   1.17876   1.18725
  Beta virt. eigenvalues --    1.19134   1.19399   1.22490   1.22570   1.23115
  Beta virt. eigenvalues --    1.24096   1.25828   1.26366   1.29112   1.29872
  Beta virt. eigenvalues --    1.30330   1.32745   1.34176   1.34627   1.37419
  Beta virt. eigenvalues --    1.38069   1.38863   1.40756   1.43102   1.44634
  Beta virt. eigenvalues --    1.46011   1.47988   1.49848   1.51749   1.53661
  Beta virt. eigenvalues --    1.55003   1.56189   1.57627   1.59635   1.59899
  Beta virt. eigenvalues --    1.60415   1.60712   1.61211   1.62719   1.63274
  Beta virt. eigenvalues --    1.64202   1.65244   1.65635   1.66112   1.66635
  Beta virt. eigenvalues --    1.67449   1.67622   1.67842   1.68640   1.69023
  Beta virt. eigenvalues --    1.69421   1.71182   1.72706   1.73093   1.73182
  Beta virt. eigenvalues --    1.74911   1.76990   1.77774   1.79323   1.80162
  Beta virt. eigenvalues --    1.81840   1.82303   1.85780   1.88087   1.88442
  Beta virt. eigenvalues --    1.90732   1.91753   1.93387   1.94227   1.96026
  Beta virt. eigenvalues --    1.96884   1.97626   1.99277   2.00275   2.02018
  Beta virt. eigenvalues --    2.03099   2.04153   2.05229   2.08031   2.08732
  Beta virt. eigenvalues --    2.10042   2.11538   2.11925   2.12468   2.14331
  Beta virt. eigenvalues --    2.15853   2.16465   2.17207   2.19526   2.20321
  Beta virt. eigenvalues --    2.20965   2.22423   2.22806   2.24982   2.26031
  Beta virt. eigenvalues --    2.27363   2.28035   2.28093   2.30843   2.32348
  Beta virt. eigenvalues --    2.32616   2.34059   2.34489   2.35347   2.36378
  Beta virt. eigenvalues --    2.36922   2.37597   2.38329   2.38869   2.39529
  Beta virt. eigenvalues --    2.40398   2.42561   2.42695   2.44300   2.45105
  Beta virt. eigenvalues --    2.45918   2.46621   2.48786   2.49344   2.50366
  Beta virt. eigenvalues --    2.53411   2.53583   2.54304   2.55191   2.55938
  Beta virt. eigenvalues --    2.57083   2.57217   2.57789   2.59011   2.59614
  Beta virt. eigenvalues --    2.60643   2.60879   2.61195   2.63111   2.64038
  Beta virt. eigenvalues --    2.64407   2.65334   2.66704   2.67614   2.68414
  Beta virt. eigenvalues --    2.69502   2.70619   2.71342   2.71964   2.73101
  Beta virt. eigenvalues --    2.74019   2.74874   2.75687   2.76232   2.78201
  Beta virt. eigenvalues --    2.78470   2.78684   2.81313   2.82354   2.83033
  Beta virt. eigenvalues --    2.84367   2.85204   2.87192   2.88683   2.89886
  Beta virt. eigenvalues --    2.91316   2.93542   2.94187   2.95878   2.96329
  Beta virt. eigenvalues --    2.99372   3.00081   3.02394   3.03977   3.06735
  Beta virt. eigenvalues --    3.07433   3.07731   3.09029   3.10023   3.12667
  Beta virt. eigenvalues --    3.13697   3.15710   3.16304   3.16493   3.18172
  Beta virt. eigenvalues --    3.19162   3.19951   3.22906   3.23120   3.24294
  Beta virt. eigenvalues --    3.25072   3.25587   3.26205   3.27454   3.27761
  Beta virt. eigenvalues --    3.30564   3.30741   3.31379   3.31848   3.33050
  Beta virt. eigenvalues --    3.34384   3.35841   3.36479   3.37523   3.38068
  Beta virt. eigenvalues --    3.38690   3.39614   3.39681   3.40844   3.41565
  Beta virt. eigenvalues --    3.42643   3.43138   3.45038   3.45944   3.46826
  Beta virt. eigenvalues --    3.47552   3.49178   3.50047   3.51682   3.52127
  Beta virt. eigenvalues --    3.52957   3.55488   3.55844   3.57164   3.58719
  Beta virt. eigenvalues --    3.60313   3.62844   3.63811   3.64650   3.66440
  Beta virt. eigenvalues --    3.67501   3.67881   3.69045   3.71678   3.72398
  Beta virt. eigenvalues --    3.73715   3.74538   3.77127   3.78555   3.79969
  Beta virt. eigenvalues --    3.82007   3.83712   3.89108   3.90765   3.91496
  Beta virt. eigenvalues --    3.95133   3.96011   3.97340   3.99040   4.00321
  Beta virt. eigenvalues --    4.02437   4.04253   4.05476   4.06437   4.07600
  Beta virt. eigenvalues --    4.08240   4.10009   4.12686   4.13495   4.13705
  Beta virt. eigenvalues --    4.16921   4.17628   4.20210   4.20391   4.22482
  Beta virt. eigenvalues --    4.25456   4.26177   4.28919   4.31962   4.32886
  Beta virt. eigenvalues --    4.35184   4.37054   4.38181   4.39451   4.40080
  Beta virt. eigenvalues --    4.41888   4.43075   4.44312   4.44900   4.46981
[...]
 266,-0.01600132,-0.01290293,0.04061848,0.00019601,-0.00019058,0.000208
 51,-0.00020642,-0.00194207,-0.00166989,0.06532419,-0.00008317,-0.00002
 845,0.00008894,-0.00009737,-0.00005692,0.00014333,0.00028794,0.0012834
 1,0.00043399,0.00017000,0.00006238,-0.00014588,-0.00036441,-0.00061802
 ,-0.00011919,0.00014811,-0.00008398,0.00007842,0.00001726,0.00005555,0
 .00001572,0.00003924,0.00002623,0.00006674,0.00006360,-0.00005661,-0.0
 0000970,-0.00126545,-0.00169628,0.00063891,0.00005503,0.00013164,0.000
 15956,-0.00000669,0.00006431,-0.00003417,-0.00003496,-0.00004522,0.000
 11935,0.00013696,0.00003160,0.00014666,0.00005741,-0.00017606,0.000000
 33,0.00004300,0.00002509,-0.00005762,-0.00012224,0.00004724,0.00002573
 ,0.00001263,-0.00000634,-0.00000894,0.00000481,0.00000380,-0.00000510,
 -0.00000069,-0.00001192,0.00000141,0.00042568,0.00687738,-0.02432586,-
 0.00308609,-0.06883720,0.06350861,0.00075777,-0.00953119,0.02923598,-0
 .00136021,0.00115828,0.00058957,-0.00275415,0.00046259,0.00444072,0.00
 053700,0.00055976,0.00047859,-0.00147209,-0.00316757,-0.00320990,0.006
 55239,0.07680027,-0.00013342,-0.00005801,0.00016713,-0.00012260,-0.000
 08682,0.00012668,0.00070649,0.00065297,-0.00082586,-0.00024109,0.00011
 600,-0.00022394,0.00023244,0.00021806,-0.00073122,-0.00022175,-0.00013
 884,0.00010116,0.00018528,0.00001003,-0.00007664,0.00000750,-0.0000512
 2,0.00000756,-0.00007975,0.00008610,0.00005212,0.00059997,0.00104783,0
 .00107371,0.00010269,0.00020025,0.00049136,0.00002386,0.00008304,-0.00
 000424,-0.00008695,-0.00009825,0.00001455,0.00009462,-0.00002143,0.000
 17184,-0.00003089,-0.00002046,0.00011137,-0.00002855,0.00002261,0.0000
 4305,-0.00004271,0.00000870,0.00002890,-0.00000686,0.00000803,0.000000
 72,-0.00002696,0.00001640,0.00003024,0.00000979,-0.00001627,0.00000249
 ,-0.00178086,0.00382406,-0.01929568,0.01362680,0.06407586,-0.29153245,
 -0.00049285,0.00192043,-0.00455974,0.00014957,-0.00024618,0.00042645,0
 .00679624,0.00289468,-0.00568741,0.00029364,-0.00004157,0.00029231,-0.
 00058611,-0.00295190,-0.00105276,-0.01889938,-0.07156183,0.31647706,0.
 00008140,-0.00042422,0.00008024,0.00014533,0.00032948,-0.00009470,-0.0
 0061219,0.00009472,0.00023670,-0.00389795,0.00243609,0.00372157,0.0000
 8497,-0.00002389,-0.00005468,0.00014781,0.00000161,-0.00004082,0.00019
 283,0.00002865,0.00065139,-0.00081599,-0.00123075,-0.00089581,0.000032
 73,-0.00005232,0.00002100,-0.00000956,-0.00000426,0.00000392,-0.000005
 69,0.00003159,-0.00002315,0.00001111,-0.00006444,-0.00003767,0.0000298
 9,0.00002973,0.00003071,-0.00000800,0.00001241,0.00002105,0.00010864,0
 .00003309,-0.00004410,-0.00001007,-0.00000416,-0.00008543,-0.00000553,
 0.00003471,-0.00003414,-0.00056854,0.00020175,0.00019834,-0.00000241,-
 0.00002412,0.00005973,-0.00001154,0.00008822,-0.00004693,-0.00162744,0
 .00278117,-0.00013703,0.00549535,0.01131878,0.00776404,-0.11440204,-0.
 09678352,-0.06957824,-0.01939092,-0.02216015,-0.01643715,0.00169186,0.
 00032440,0.00015669,0.00043129,0.00078763,0.00040371,-0.00007645,-0.00
 003240,-0.00010649,0.00036055,-0.00073213,0.00002184,0.12998060,-0.000
 18306,0.00022437,0.00003741,0.00027154,0.00003423,0.00004418,0.0007393
 0,0.00018074,-0.00035695,0.00074828,0.00088038,0.00033466,-0.00010008,
 -0.00002381,-0.00004565,-0.00021555,-0.00009146,0.00012038,0.00015429,
 0.00022284,-0.00003097,-0.00005753,-0.00001318,-0.00013047,-0.00001516
 ,0.00005686,-0.00001863,0.00001168,0.00002414,0.00001718,-0.00000965,-
 0.00003202,0.00005379,-0.00000310,0.00007921,0.00004284,-0.00007701,-0
 .00004060,-0.00005960,0.00000828,0.00000050,-0.00001466,0.00008333,-0.
 00012332,0.00001634,0.00004997,-0.00000144,-0.00003464,-0.00007974,0.0
 0001938,-0.00000346,0.00001235,0.00001050,0.00000113,0.00000018,-0.000
 01078,-0.00001513,-0.00001670,0.00000303,0.00000996,0.00448696,-0.0041
 0648,0.00206720,-0.01583602,-0.02499862,-0.01689331,-0.09448036,-0.175
 01137,-0.09195230,0.00139878,0.00105276,0.00140014,-0.00151952,0.00396
 406,0.00093643,-0.00065420,-0.00150597,-0.00108912,0.00004036,0.000280
 59,0.00014227,-0.00027974,0.00085521,0.00032420,0.10101071,0.19232518,
 -0.00003336,0.00005665,-0.00001105,-0.00009476,-0.00023130,0.00003561,
 0.00013689,-0.00019915,-0.00004779,0.00192127,-0.00044657,-0.00098451,
 -0.00009441,-0.00002675,0.00004705,-0.00001556,0.00003925,-0.00002007,
 0.00010197,-0.00035742,-0.00022094,0.00024552,0.00026090,0.00037623,-0
 .00001097,0.00001060,-0.00000518,0.00000708,-0.00000370,-0.00000113,-0
 .00000627,-0.00001573,0.00002156,0.00001241,-0.00000611,0.00000876,0.0
 0000337,-0.00001188,0.00000512,0.00000925,0.00000528,0.00002397,-0.000
 11476,0.00024412,0.00033455,-0.00017882,0.00002348,0.00020566,0.000079
 73,-0.00001753,0.00001931,0.00019384,-0.00003780,-0.00003725,-0.000015
 06,0.00001820,0.00000284,0.00000554,-0.00003221,-0.00000393,-0.0007964
 0,0.00032667,0.00020082,0.00243215,0.00463940,0.00239510,-0.06979562,-
 0.09269429,-0.11712300,0.00793367,0.00889106,0.00552590,0.00102228,0.0
 0049220,-0.00019513,0.00002479,0.00000796,0.00052523,0.00000024,0.0001
 4908,0.00059170,0.00060336,-0.00023245,0.00044704,0.07347077,0.1010099
 8,0.12316614,0.00010406,0.00001030,-0.00006852,-0.00021311,-0.00008886
 ,-0.00019593,-0.00007152,-0.00001055,0.00013461,0.00175329,-0.00008159
 ,0.00064320,0.00007062,0.00001600,-0.00007950,0.00004904,-0.00001104,0
 .00003226,-0.00038514,-0.00047782,-0.00038905,0.00006254,0.00016769,-0
 .00004281,-0.00000429,-0.00001463,-0.00000365,-0.00003371,0.00002671,0
 .00006196,0.00000808,0.00004253,0.00003616,-0.00000667,0.00000028,-0.0
 0002259,-0.00000078,0.00001897,0.00000156,-0.00000343,-0.00000917,-0.0
 0003114,-0.00076890,-0.00081664,-0.00085814,0.00015810,0.00011353,-0.0
 0008033,-0.00022036,0.00023268,-0.00016620,-0.00001681,-0.00003282,-0.
 00017662,0.00017732,0.00001073,-0.00020972,-0.00001566,0.00004352,0.00
 003158,-0.00013215,-0.00101642,-0.00013787,-0.00100614,0.00480280,-0.0
 1482680,-0.04756246,-0.00261482,0.00878533,-0.00176909,-0.00740590,0.0
 3311354,0.00185388,-0.00064595,-0.00022722,-0.00006295,-0.00005983,-0.
 00008059,0.00014005,-0.00020664,0.00029520,-0.00097324,0.00242522,-0.0
 0003303,0.00067294,0.00459594,-0.01569481,0.05366098,0.00000416,0.0000
 8101,-0.00006160,-0.00002686,-0.00012521,-0.00000433,-0.00002777,-0.00
 001048,0.00001353,0.00019216,-0.00004200,0.00085132,-0.00001145,0.0000
 1004,0.00021632,-0.00003539,-0.00001273,0.00000947,-0.00039185,0.00031
 505,-0.00002316,-0.00006816,0.00006953,-0.00013864,0.00001992,0.000003
 04,0.00000049,0.00000893,-0.00003574,-0.00021511,-0.00002264,-0.000066
 10,-0.00012517,-0.00001093,0.00000176,0.00000300,0.00000612,0.00000359
 ,-0.00001540,-0.00002214,-0.00000920,-0.00005769,-0.00069662,-0.000474
 12,-0.00059434,0.00020409,-0.00009521,-0.00004869,0.00004613,-0.000088
 33,0.00004751,-0.00000474,-0.00001111,0.00000854,0.00003355,-0.0000262
 1,-0.00002858,0.00000364,-0.00001106,0.00000167,0.00006342,0.00169761,
 0.00226459,-0.00088359,-0.01089532,0.03210549,-0.00218744,-0.06132345,
 0.05484401,-0.00047822,-0.00017437,-0.00172968,-0.00204242,0.00127963,
 -0.00132181,-0.00000800,0.00038453,-0.00024921,-0.00011504,-0.00031894
 ,-0.00107698,0.00307824,-0.00466261,0.00043668,0.00183703,0.00545723,-
 0.02164297,0.00034086,0.06767117,-0.00001921,0.00007758,0.00003351,0.0
 0006613,-0.00003883,0.00018463,0.00021058,-0.00021694,0.00005745,-0.00
 045082,-0.00058869,-0.00060345,-0.00019952,-0.00011677,-0.00007844,0.0
 0002205,0.00003014,-0.00005323,-0.00027684,-0.00074903,-0.00041792,0.0
 0008938,0.00015610,0.00009837,-0.00000589,0.00003601,0.00001611,0.0000
 2242,0.00001672,0.00008058,0.00001018,-0.00002442,0.00006694,-0.000002
 01,0.00000491,0.00000961,0.00000983,0.00000063,0.00001182,0.00001667,0
 .00000724,0.00003313,-0.00124854,-0.00019635,0.00000197,-0.00034239,0.
 00000937,0.00045086,0.00030379,0.00008781,-0.00008158,0.00011841,0.000
 01628,0.00005207,-0.00006356,-0.00001627,0.00012234,-0.00000876,-0.000
 00890,-0.00001551,-0.00039603,-0.00116573,0.00081535,0.00165073,0.0019
 4367,-0.00821508,0.01048133,0.05657888,-0.28510248,0.00130185,0.002338
 46,-0.01031449,-0.00142058,-0.00097309,0.00225938,-0.00000510,-0.00004
 833,0.00028680,0.00032512,0.00044062,0.00068447,-0.00051687,0.00093588
 ,0.00125723,0.00083627,0.00393764,-0.01575512,-0.01168615,-0.06256194,
 0.31352244,-0.00028223,-0.00010888,0.00031724,0.00108719,0.00132282,0.
 00011395,-0.00011792,-0.00004333,-0.00000570,-0.00166876,0.00431543,-0
 .02087401,0.00009556,0.00004883,0.00004102,-0.00000295,0.00005079,-0.0
 0004734,-0.00304605,-0.00281130,-0.00110770,0.00085881,0.00033316,-0.0
 0138546,-0.00001064,-0.00002187,-0.00000716,0.00000647,0.00002167,-0.0
 0002182,-0.00001426,-0.00001011,-0.00002715,0.00000483,-0.00001192,0.0
 0002346,0.00000473,-0.00000407,-0.00000209,-0.00002577,0.00001743,0.00
 002361,0.00005437,-0.00012511,-0.00008809,0.00021338,-0.00010929,-0.00
 140895,-0.00000416,-0.00004459,0.00036479,0.00009661,0.00001855,0.0003
 7961,-0.00074532,-0.00031819,0.00021928,-0.00008589,-0.00003524,-0.000
 04967,0.00004131,0.00019090,-0.00004824,0.00128199,-0.00129926,0.00139
 996,-0.00317936,-0.00697810,0.03272721,-0.04693309,-0.00104115,0.00641
 757,0.00016164,0.00015273,-0.00063431,0.00000854,0.00004644,0.00003198
 ,-0.00006078,-0.00009708,-0.00015266,-0.00019234,0.00059016,-0.0006260
 1,0.00116080,-0.00025738,-0.00048931,-0.00612781,0.00059184,0.00200732
 ,0.05752214,-0.00007875,0.00018098,0.00012372,0.00090247,0.00154971,-0
 .00070411,0.00005788,-0.00019992,-0.00022934,-0.00222513,0.00140642,-0
 .02190765,-0.00006631,-0.00005712,-0.00009082,0.00000160,0.00000826,-0
 .00002834,-0.00297768,-0.00235217,-0.00088710,0.00096436,-0.00004856,-
 0.00008615,-0.00000894,0.00002123,0.00004854,0.00006749,0.00000070,0.0
 0009192,0.00000855,-0.00001513,0.00001525,-0.00000686,0.00000107,0.000
 01912,0.00000319,-0.00000709,-0.00000561,-0.00000826,0.00001776,0.0000
 4020,0.00014546,0.00005094,0.00014694,-0.00010567,0.00037271,-0.001266
 20,-0.00008453,0.00020870,-0.00017186,0.00012845,-0.00007526,-0.000029
 70,-0.00001461,0.00033778,0.00021436,-0.00002731,0.00005704,0.00014414
 ,-0.00004869,-0.00010051,-0.00011367,0.00009369,0.00044394,-0.00127481
 ,-0.00020374,-0.00006364,-0.00176109,0.00029571,-0.05879981,0.05602205
 ,-0.00013831,0.00000958,0.00008963,-0.00000421,-0.00000807,0.00002182,
 -0.00003557,-0.00001793,0.00009370,0.00011163,0.00011454,0.00007172,-0
 .00025095,-0.00004242,0.00035479,0.00015751,0.00080681,-0.00051030,0.0
 0415941,0.06209747,-0.00034616,-0.00045265,0.00025158,0.00122996,0.001
 53202,0.00135213,0.00008783,-0.00030001,-0.00030622,-0.00098362,0.0032
 0528,-0.01816028,-0.00005194,-0.00006544,-0.00010324,-0.00003555,0.000
 02444,-0.00003446,-0.00254373,-0.00252579,0.00033272,0.00109771,0.0003
 0787,0.00023007,-0.00000723,0.00003743,0.00004145,0.00008314,-0.000116
 46,0.00005756,-0.00000111,-0.00001072,0.00002615,0.00000610,0.00000417
 ,0.00003401,-0.00000392,-0.00001765,-0.00000951,-0.00000424,0.00002699
 ,0.00006614,0.00008632,0.00006344,0.00004381,-0.00003355,-0.00001912,-
 0.00103238,0.00012061,0.00002770,0.00032971,-0.00000141,-0.00015194,0.
 00039876,-0.00042916,0.00014190,0.00073999,-0.00001630,-0.00018088,0.0
 0005028,0.00005539,-0.00000034,-0.00000765,-0.00073077,0.00049857,-0.0
 0008065,0.00160989,0.00243201,-0.01080450,0.00491857,0.05375527,-0.294
 79967,-0.00005269,-0.00031256,0.00056612,-0.00000480,-0.00004758,0.000
 02625,-0.00003594,0.00009967,0.00015399,0.00050359,-0.00076138,0.00027
 862,0.00030451,0.00007583,0.00051902,0.00194813,0.00006697,0.00078648,
 -0.00639859,-0.05818249,0.32161020,-0.00039481,-0.00154540,0.00043064,
 -0.00252430,-0.00232539,-0.00154291,-0.00058623,0.00010852,0.00035544,
 0.00460356,-0.01920938,0.00184214,0.00008671,-0.00005382,-0.00009639,0
 .00019719,-0.00000286,-0.00006394,0.00021840,0.00040228,0.00041852,-0.
 00076003,-0.00200533,-0.00048315,0.00003070,-0.00004552,0.00001636,-0.
 00002146,-0.00000234,0.00005189,-0.00000154,0.00007597,-0.00001243,0.0
 0001009,-0.00005341,-0.00005466,0.00002259,0.00006362,0.00005691,-0.00
 001428,0.00000470,-0.00000830,-0.00003536,0.00004274,-0.00001573,-0.00
 003718,0.00008057,0.00014751,0.00007954,0.00013848,-0.00020584,0.00017
 764,0.00001657,0.00026835,0.00007288,0.00010169,0.00028209,-0.00125041
 ,-0.00070372,-0.00044960,0.00016031,-0.00008697,-0.00021923,-0.0034685
 5,-0.00356942,0.00290498,-0.01481512,0.03160134,-0.00379546,-0.0717675
 9,0.08357137,-0.01030258,-0.00277027,0.00163542,0.00021714,0.00003385,
 0.00006657,0.00003253,0.00004152,0.00004394,0.00006450,0.00016646,-0.0
 0034284,-0.00008450,0.00084394,-0.00003548,-0.00070021,0.00118944,-0.0
 0025534,0.00033478,-0.00045251,-0.00084375,-0.00010613,0.09086903,-0.0
 0083555,-0.00127884,0.00006853,-0.00257780,-0.00142890,-0.00191449,-0.
 00053110,0.00043492,0.00031434,0.00591507,-0.02070756,0.00326389,0.000
 04921,-0.00005506,-0.00006691,0.00013839,-0.00007799,0.00002733,0.0003
 6664,0.00031835,0.00045836,0.00212641,-0.00013162,0.00075092,0.0000423
 6,-0.00004373,0.00001072,-0.00001433,0.00001244,-0.00001765,-0.0000263
 3,0.00004443,-0.00001095,0.00001296,-0.00004782,-0.00007007,-0.0000123
 8,0.00003837,0.00003266,-0.00000212,0.00000609,-0.00004255,-0.00007694
 ,0.00005909,0.00007892,-0.00016452,0.00033450,-0.00004257,-0.00010712,
 0.00036628,-0.00068673,0.00007935,0.00062495,-0.00012440,-0.00019864,-
 0.00014062,-0.00003147,-0.00056419,0.00117104,-0.00015812,-0.00014011,
 0.00008881,0.00008797,-0.00017666,0.00146825,-0.00010075,-0.00015982,-
 0.00009304,-0.00000097,0.08156145,-0.27921903,0.02669049,0.00016692,-0
 .00012307,0.00003017,0.00006575,0.00004947,-0.00001404,0.00001250,0.00
 000971,-0.00004532,-0.00012335,0.00005757,-0.00005254,0.00029298,0.000
 78005,0.00001555,0.00022176,0.00012903,-0.00028390,0.00163665,-0.00581
 278,0.00065891,-0.08694964,0.30321436,-0.00036047,-0.00111328,0.000247
 35,-0.00150134,-0.00062289,0.00022053,-0.00001646,-0.00001977,-0.00003
 712,0.00424394,-0.01519987,0.00040286,-0.00003325,-0.00004695,-0.00012
 482,-0.00000864,0.00000727,0.00006321,0.00052253,-0.00012163,0.0003187
 0,0.00070652,-0.00006043,0.00048108,0.00001841,0.00001539,0.00003478,0
 .00004468,-0.00003220,0.00004544,-0.00001140,0.00001982,0.00001266,-0.
 00000052,0.00000826,-0.00002035,-0.00001183,-0.00000535,0.00000309,0.0
 0000301,0.00000208,-0.00001163,-0.00009924,-0.00006671,-0.00003032,-0.
 00002558,0.00030038,0.00012494,-0.00032247,0.00003578,-0.00051000,0.00
 020141,-0.00005223,-0.00023027,-0.00011322,0.00023869,-0.00012828,-0.0
 0015077,0.00010542,0.00038965,-0.00012166,0.00013109,0.00014124,0.0013
 8473,0.00139361,-0.00061906,0.00573619,-0.01252604,0.00050218,-0.01006
 912,0.02757645,-0.05143347,0.00094252,-0.00056362,0.00038507,0.0000178
 7,0.00002404,-0.00000333,-0.00001871,0.00002646,0.00001727,0.00013396,
 -0.00037259,0.00033733,-0.00072030,0.00044248,0.00031422,-0.00062854,-
 0.00036064,0.00026967,-0.01055075,0.02967947,-0.00256337,0.01092511,-0
 .02886433,0.05129787,0.00017657,0.00006490,-0.00009213,-0.00002928,0.0
 0007842,0.00004158,-0.00051321,-0.00003561,-0.00007580,-0.00003524,-0.
 00019162,-0.00004545,0.00023356,0.00010912,0.00007256,0.00009234,0.000
 00896,-0.00009698,-0.00005572,0.00009072,0.00009274,0.00004862,0.00009
 608,0.00005051,-0.00001432,-0.00004557,-0.00000761,-0.00003276,-0.0000
 0833,-0.00011266,-0.00000286,0.00002741,-0.00012797,-0.00002867,-0.000
 00603,-0.00000432,0.00004456,0.00005026,0.00001698,-0.00002821,-0.0000
 2010,-0.00003017,-0.00002958,-0.00004793,-0.00011199,0.00007357,0.0000
 0984,-0.00000928,-0.00000449,-0.00001141,-0.00002910,0.00004917,0.0000
 0610,0.00000200,-0.00000554,-0.00000771,-0.00000679,-0.00002191,-0.000
 00263,0.00000072,0.00121086,-0.00016356,0.00113991,-0.01186618,-0.0153
 1023,0.04481229,0.00163614,-0.00041599,0.00171265,-0.00042980,-0.00006
 128,-0.00039160,-0.04836399,-0.01020770,0.02405897,0.00002724,-0.00009
 050,-0.00024516,-0.00040279,-0.00013784,-0.00099266,-0.00671508,-0.000
 60173,0.00067354,-0.00002773,0.00020835,-0.00016382,-0.00052614,0.0008
 5851,-0.00116456,0.00035150,0.00003190,-0.00026491,0.00009576,-0.00002
 781,-0.00011662,0.06509364,0.00037177,-0.00028292,-0.00008204,-0.00001
 158,0.00027454,-0.00009937,-0.00056665,-0.00033900,0.00008258,-0.00004
 588,0.00049429,0.00016926,0.00020089,0.00007012,0.00001848,0.00014902,
 0.00006225,-0.00014829,-0.00009087,-0.00014236,0.00003444,-0.00008783,
 -0.00015669,-0.00007509,0.00001169,-0.00008461,0.00002340,-0.00001669,
 0.00000857,-0.00006661,-0.00000010,0.00005954,-0.00009932,-0.00000951,
 -0.00010414,-0.00001279,0.00006989,0.00006523,0.00001823,-0.00004670,0
 .00000558,0.00000519,0.00000850,0.00011974,-0.00004646,-0.00004062,-0.
 00001890,-0.00002819,0.00010199,-0.00006637,0.00001991,-0.00007313,0.0
 0001583,-0.00000760,0.00002262,0.00002227,-0.00000917,0.00004169,-0.00
 003596,0.00000636,0.00057036,0.00029040,0.00078108,-0.00030617,-0.0019
 9845,0.00508526,0.00029461,0.00150779,-0.00252469,0.00042972,-0.000644
 99,0.00011926,-0.02565202,-0.05505643,0.15555742,-0.00021427,-0.001086
 04,0.00021608,-0.00057692,0.00018536,-0.00025512,-0.00056196,0.0003615
 0,-0.00067235,0.00011256,-0.00044978,-0.00058931,0.00026566,0.00047217
 ,0.00088155,-0.00017993,-0.00008524,0.00018651,0.00007686,-0.00004765,
 0.00002185,0.02575301,0.05658436,0.00001781,-0.00008992,-0.00001193,0.
 00002551,0.00002354,-0.00006319,-0.00020774,-0.00026040,-0.00057170,0.
 00004741,0.00017823,0.00019020,0.00002121,-0.00004885,-0.00007060,-0.0
 0011960,-0.00010429,0.00007439,-0.00005884,-0.00003796,0.00000522,-0.0
 0006767,-0.00007893,-0.00008365,0.00001698,-0.00001234,0.00001814,-0.0
 0000944,0.00002177,-0.00000616,-0.00000608,-0.00001534,-0.00001274,0.0
 0000796,-0.00003083,0.00000551,-0.00001833,-0.00002923,-0.00005342,-0.
 00003147,0.00001561,-0.00000763,0.00000645,0.00000899,0.00000770,-0.00
 001147,-0.00000882,-0.00002977,0.00001119,-0.00000247,0.00001500,-0.00
 005102,-0.00000350,0.00000269,0.00001950,0.00000850,-0.00001175,0.0000
 1841,-0.00000915,0.00000843,-0.00112733,-0.00037942,0.00298106,-0.0006
 4925,0.00297379,-0.01012183,-0.00178570,-0.00120641,0.00230972,-0.0002
 0904,0.00054726,-0.00009990,0.06980395,0.15714494,-0.46239124,0.000232
 75,0.00004652,0.00021168,0.00005024,0.00099494,-0.00035513,0.00209851,
 -0.00026383,0.00205102,0.00035414,-0.00036913,-0.00036072,0.00055569,-
 0.00061363,-0.00046392,-0.00014202,0.00007187,0.00000691,-0.00020783,0
 .00003901,0.00010292,-0.06858486,-0.15851050,0.46672469\\-0.00002226,-
 0.00001046,0.00001744,0.00001646,0.00000074,0.00000352,-0.00000733,0.0
 0000676,-0.00000720,0.00000273,-0.00000012,0.00000338,0.00000660,0.000
 00235,-0.00001518,0.00000386,-0.00000319,-0.00000720,-0.00000540,0.000
 01060,0.00000225,0.00000519,-0.00000418,-0.00000045,0.00000555,-0.0000
 0021,-0.00000803,0.00000557,0.00000303,-0.00000125,0.00000712,-0.00000
 200,-0.00000174,-0.00000068,-0.00000079,-0.00000621,-0.00000184,-0.000
 00243,-0.00000048,-0.00000035,-0.00000355,-0.00000059,-0.00000845,0.00
 000572,0.00000070,-0.00000604,0.00000178,0.00000051,-0.00000337,0.0000
 0104,0.00000491,-0.00000038,-0.00000147,0.00000419,0.00000213,-0.00000
 358,0.00000482,0.00000047,0.00000202,0.00000726,0.00001318,0.00000151,
 0.00000144,-0.00001324,-0.00000727,-0.00000176,0.00000273,-0.00000031,
 0.00000090,-0.00000970,0.00000963,0.00000292,0.00001289,0.00001029,-0.
 00000195,-0.00000054,0.00000230,-0.00000203,-0.00000190,-0.00000412,-0
 .00000276,-0.00000146,-0.00000795,0.00000391,0.00000084,-0.00000333,0.
 00000009,-0.00000202,0.00000375,-0.00000039,0.00000110,-0.00000255,0.0
 0000478,-0.00000236,-0.00000215,0.00000390,0.00000093,-0.00000184,-0.0
 0000971\\\@
 The archive entry for this job was punched.


 THE WORLD IS NOT A HAMBURGER - YOU CAN'T HAVE IT YOUR WAY.
 Job cpu time:       1 days  5 hours 15 minutes 44.0 seconds.
 Elapsed time:       0 days  1 hours 27 minutes 48.0 seconds.
 File lengths (MBytes):  RWF=   1428 Int=      0 D2E=      0 Chk=     32 Scr=      1
 Normal termination of Gaussian 16 at Thu Jan  9 14:04:51 2025.
