 Entering Gaussian System, Link 0=g16
 Input=gjfs/data_set_3-catalyst-Mix_11_opt.gjf
 Output=gjfs/data_set_3-catalyst-Mix_11_opt.log
 Initial command:
 /usr/local/intel/g16/l1.exe "/scr/Gau-1175583.inp" -scrdir="/scr/"
 Entering Link 1 = /usr/local/intel/g16/l1.exe PID=   1175585.
  
 Copyright (c) 1988-2019, Gaussian, Inc.  All Rights Reserved.
  
 This is part of the Gaussian(R) 16 program.  It is based on
 the Gaussian(R) 09 system (copyright 2009, Gaussian, Inc.),
 the Gaussian(R) 03 system (copyright 2003, Gaussian, Inc.),
 the Gaussian(R) 98 system (copyright 1998, Gaussian, Inc.),
 the Gaussian(R) 94 system (copyright 1995, Gaussian, Inc.),
 the Gaussian 92(TM) system (copyright 1992, Gaussian, Inc.),
 the Gaussian 90(TM) system (copyright 1990, Gaussian, Inc.),
 the Gaussian 88(TM) system (copyright 1988, Gaussian, Inc.),
 the Gaussian 86(TM) system (copyright 1986, Carnegie Mellon
 University), and the Gaussian 82(TM) system (copyright 1983,
 Carnegie Mellon University). Gaussian is a federally registered
 trademark of Gaussian, Inc.
  
 This software contains proprietary and confidential information,
 including trade secrets, belonging to Gaussian, Inc.
  
 This software is provided under written license and may be
 used, copied, transmitted, or stored only in accord with that
 written license.
  
 The following legend is applicable only to US Government
 contracts under FAR:
  
                    RESTRICTED RIGHTS LEGEND
  
 Use, reproduction and disclosure by the US Government is
 subject to restrictions as set forth in subparagraphs (a)
 and (c) of the Commercial Computer Software - Restricted
 Rights clause in FAR 52.227-19.
  
 Gaussian, Inc.
 340 Quinnipiac St., Bldg. 40, Wallingford CT 06492
  
  
 ---------------------------------------------------------------
 Warning -- This program may not be used in any manner that
 competes with the business of Gaussian, Inc. or will provide
 assistance to any competitor of Gaussian, Inc.  The licensee
 of this program is prohibited from giving any competitor of
 Gaussian, Inc. access to this program.  By using this program,
 the user acknowledges that Gaussian, Inc. is engaged in the
 business of creating and licensing software in the field of
 computational chemistry and represents and warrants to the
 licensee that it is not a competitor of Gaussian, Inc. and that
 it will not use this program in any manner prohibited above.
 ---------------------------------------------------------------
  

 Cite this work as:
 Gaussian 16, Revision C.01,
 M. J. Frisch, G. W. Trucks, H. B. Schlegel, G. E. Scuseria, 
 M. A. Robb, J. R. Cheeseman, G. Scalmani, V. Barone, 
 G. A. Petersson, H. Nakatsuji, X. Li, M. Caricato, A. V. Marenich, 
 J. Bloino, B. G. Janesko, R. Gomperts, B. Mennucci, H. P. Hratchian, 
 J. V. Ortiz, A. F. Izmaylov, J. L. Sonnenberg, D. Williams-Young, 
 F. Ding, F. Lipparini, F. Egidi, J. Goings, B. Peng, A. Petrone, 
 T. Henderson, D. Ranasinghe, V. G. Zakrzewski, J. Gao, N. Rega, 
 G. Zheng, W. Liang, M. Hada, M. Ehara, K. Toyota, R. Fukuda, 
 J. Hasegawa, M. Ishida, T. Nakajima, Y. Honda, O. Kitao, H. Nakai, 
 T. Vreven, K. Throssell, J. A. Montgomery, Jr., J. E. Peralta, 
 F. Ogliaro, M. J. Bearpark, J. J. Heyd, E. N. Brothers, K. N. Kudin, 
 V. N. Staroverov, T. A. Keith, R. Kobayashi, J. Normand, 
 K. Raghavachari, A. P. Rendell, J. C. Burant, S. S. Iyengar, 
 J. Tomasi, M. Cossi, J. M. Millam, M. Klene, C. Adamo, R. Cammi, 
 J. W. Ochterski, R. L. Martin, K. Morokuma, O. Farkas, 
 J. B. Foresman, and D. J. Fox, Gaussian, Inc., Wallingford CT, 2019.
 
 ******************************************
 Gaussian 16:  ES64L-G16RevC.01  3-Jul-2019
                 9-Jan-2025 
 ******************************************
 %nprocshared=20
 Will use up to   20 processors via shared memory.
 %mem=30GB
 %chk=outputs/data_set_3-catalyst-Mix_11_opt.chk
 ----------------------------------
 #p M062X/DEF2TZVP opt freq pop=NBO
 ----------------------------------
 1/18=20,19=15,26=3,38=1/1,3;
 2/9=110,12=2,17=6,18=5,40=1/2;
 3/5=44,7=101,11=2,25=1,30=1,71=1,74=-55/1,2,3;
 4//1;
 5/5=2,38=5/2;
 6/7=2,8=2,9=2,10=2,28=1,40=1/1,7;
 7//1,2,3,16;
 1/18=20,19=15,26=3/3(2);
 2/9=110/2;
 99//99;
 2/9=110/2;
 3/5=44,7=101,11=2,25=1,30=1,71=1,74=-55/1,2,3;
 4/5=5,16=3,69=1/1;
 5/5=2,38=5/2;
 7//1,2,3,16;
 1/18=20,19=15,26=3/3(-5);
 2/9=110/2;
 6/7=2,8=2,9=2,10=2,19=2,28=1,40=1/1,7;
 99/9=1/99;
 Leave Link    1 at Thu Jan  9 07:57:50 2025, MaxMem=  4026531840 cpu:               1.1 elap:               0.1
 (Enter /usr/local/intel/g16/l101.exe)
 ------------------------------
 data_set_3-catalyst-Mix_11_opt
 ------------------------------
 Symbolic Z-matrix:
 Charge =  0 Multiplicity = 2
 O                     2.35435   1.10587  -0.32754 
 N                     1.16573   0.52115  -0.26345 
 C                     0.03129   1.4189    0.16418 
 C                    -1.27127   1.14595  -0.63972 
 C                    -0.06702  -1.77557  -0.29296 
 C                     1.26653  -0.98812  -0.19478 
 C                     2.10556  -1.40427  -1.42899 
 C                    -0.10748   1.38363   1.70469 
 C                     0.43087   2.86527  -0.22653 
 C                     2.04531  -1.36066   1.08939 
 H                    -1.01716   1.13467  -1.70575 
 H                    -1.90286   2.0358   -0.50173 
 H                     0.26496  -2.80645  -0.46317 
 H                    -0.58679  -1.49472  -1.21684 
 H                     3.04025  -0.84306  -1.45626 
 H                     1.55236  -1.20686  -2.35375 
 H                     2.33284  -2.47451  -1.37936 
 H                    -0.95635   1.99923   2.02292 
 H                     0.80427   1.79699   2.1468 
 H                    -0.24106   0.37783   2.10244 
 H                    -0.36604   3.54778   0.08894 
 H                     0.56779   2.95538  -1.30803 
 H                     1.36289   3.15933   0.25384 
 H                     1.54988  -0.99976   1.9954 
 H                     3.04261  -0.91588   1.05082 
 H                     2.14441  -2.44942   1.16159 
 C                    -1.05437  -1.82737   0.9004 
 H                    -0.50713  -1.73908   1.84414 
 H                    -1.49251  -2.82955   0.90545 
 C                    -2.24181  -0.81391   0.86558 
 C                    -2.24232  -0.0101   -0.41472 
 O                    -3.06968  -0.25639  -1.31333 
 H                    -2.21156  -0.13868   1.72373 
 H                    -3.18994  -1.35565   0.90057 
 
 ITRead=  0  0  0  0  0  0  0  0  0  0  0  0  0  0  0  0  0  0  0  0
 ITRead=  0  0  0  0  0  0  0  0  0  0  0  0  0  0
 MicOpt= -1 -1 -1 -1 -1 -1 -1 -1 -1 -1 -1 -1 -1 -1 -1 -1 -1 -1 -1 -1
 MicOpt= -1 -1 -1 -1 -1 -1 -1 -1 -1 -1 -1 -1 -1 -1
 NAtoms=     34 NQM=       34 NQMF=       0 NMMI=      0 NMMIF=      0
                NMic=       0 NMicF=      0.
                    Isotopes and Nuclear Properties:
 (Nuclear quadrupole moments (NQMom) in fm**2, nuclear magnetic moments (NMagM)
  in nuclear magnetons)

  Atom         1           2           3           4           5           6           7           8           9          10
 IAtWgt=          16          14          12          12          12          12          12          12          12          12
 AtmWgt=  15.9949146  14.0030740  12.0000000  12.0000000  12.0000000  12.0000000  12.0000000  12.0000000  12.0000000  12.0000000
 NucSpn=           0           2           0           0           0           0           0           0           0           0
 AtZEff=  -0.0000000  -0.0000000  -0.0000000  -0.0000000  -0.0000000  -0.0000000  -0.0000000  -0.0000000  -0.0000000  -0.0000000
 NQMom=    0.0000000   2.0440000   0.0000000   0.0000000   0.0000000   0.0000000   0.0000000   0.0000000   0.0000000   0.0000000
 NMagM=    0.0000000   0.4037610   0.0000000   0.0000000   0.0000000   0.0000000   0.0000000   0.0000000   0.0000000   0.0000000
 AtZNuc=   8.0000000   7.0000000   6.0000000   6.0000000   6.0000000   6.0000000   6.0000000   6.0000000   6.0000000   6.0000000

  Atom        11          12          13          14          15          16          17          18          19          20
 IAtWgt=           1           1           1           1           1           1           1           1           1           1
 AtmWgt=   1.0078250   1.0078250   1.0078250   1.0078250   1.0078250   1.0078250   1.0078250   1.0078250   1.0078250   1.0078250
 NucSpn=           1           1           1           1           1           1           1           1           1           1
 AtZEff=  -0.0000000  -0.0000000  -0.0000000  -0.0000000  -0.0000000  -0.0000000  -0.0000000  -0.0000000  -0.0000000  -0.0000000
 NQMom=    0.0000000   0.0000000   0.0000000   0.0000000   0.0000000   0.0000000   0.0000000   0.0000000   0.0000000   0.0000000
 NMagM=    2.7928460   2.7928460   2.7928460   2.7928460   2.7928460   2.7928460   2.7928460   2.7928460   2.7928460   2.7928460
 AtZNuc=   1.0000000   1.0000000   1.0000000   1.0000000   1.0000000   1.0000000   1.0000000   1.0000000   1.0000000   1.0000000

  Atom        21          22          23          24          25          26          27          28          29          30
 IAtWgt=           1           1           1           1           1           1          12           1           1          12
 AtmWgt=   1.0078250   1.0078250   1.0078250   1.0078250   1.0078250   1.0078250  12.0000000   1.0078250   1.0078250  12.0000000
 NucSpn=           1           1           1           1           1           1           0           1           1           0
 AtZEff=  -0.0000000  -0.0000000  -0.0000000  -0.0000000  -0.0000000  -0.0000000  -0.0000000  -0.0000000  -0.0000000  -0.0000000
 NQMom=    0.0000000   0.0000000   0.0000000   0.0000000   0.0000000   0.0000000   0.0000000   0.0000000   0.0000000   0.0000000
 NMagM=    2.7928460   2.7928460   2.7928460   2.7928460   2.7928460   2.7928460   0.0000000   2.7928460   2.7928460   0.0000000
 AtZNuc=   1.0000000   1.0000000   1.0000000   1.0000000   1.0000000   1.0000000   6.0000000   1.0000000   1.0000000   6.0000000

  Atom        31          32          33          34
 IAtWgt=          12          16           1           1
 AtmWgt=  12.0000000  15.9949146   1.0078250   1.0078250
 NucSpn=           0           0           1           1
 AtZEff=  -0.0000000  -0.0000000  -0.0000000  -0.0000000
 NQMom=    0.0000000   0.0000000   0.0000000   0.0000000
 NMagM=    0.0000000   0.0000000   2.7928460   2.7928460
 AtZNuc=   6.0000000   8.0000000   1.0000000   1.0000000
 Leave Link  101 at Thu Jan  9 07:57:51 2025, MaxMem=  4026531840 cpu:              22.6 elap:               1.2
 (Enter /usr/local/intel/g16/l103.exe)

 GradGradGradGradGradGradGradGradGradGradGradGradGradGradGradGradGradGrad
 Berny optimization.
 Initialization pass.
                           ----------------------------
                           !    Initial Parameters    !
                           ! (Angstroms and Degrees)  !
 --------------------------                            --------------------------
 ! Name  Definition              Value          Derivative Info.                !
 --------------------------------------------------------------------------------
 ! R1    R(1,2)                  1.3262         estimate D2E/DX2                !
 ! R2    R(2,3)                  1.5086         estimate D2E/DX2                !
 ! R3    R(2,6)                  1.5142         estimate D2E/DX2                !
 ! R4    R(3,4)                  1.5548         estimate D2E/DX2                !
 ! R5    R(3,8)                  1.5472         estimate D2E/DX2                !
 ! R6    R(3,9)                  1.5506         estimate D2E/DX2                !
 ! R7    R(4,11)                 1.096          estimate D2E/DX2                !
 ! R8    R(4,12)                 1.0999         estimate D2E/DX2                !
 ! R9    R(4,31)                 1.5264         estimate D2E/DX2                !
 ! R10   R(5,6)                  1.5518         estimate D2E/DX2                !
 ! R11   R(5,13)                 1.0963         estimate D2E/DX2                !
 ! R12   R(5,14)                 1.0966         estimate D2E/DX2                !
 ! R13   R(5,27)                 1.5497         estimate D2E/DX2                !
 ! R14   R(6,7)                  1.5493         estimate D2E/DX2                !
 ! R15   R(6,10)                 1.5474         estimate D2E/DX2                !
 ! R16   R(7,15)                 1.0906         estimate D2E/DX2                !
 ! R17   R(7,16)                 1.0955         estimate D2E/DX2                !
 ! R18   R(7,17)                 1.0952         estimate D2E/DX2                !
 ! R19   R(8,18)                 1.0958         estimate D2E/DX2                !
 ! R20   R(8,19)                 1.0943         estimate D2E/DX2                !
 ! R21   R(8,20)                 1.0898         estimate D2E/DX2                !
 ! R22   R(9,21)                 1.0956         estimate D2E/DX2                !
 ! R23   R(9,22)                 1.0939         estimate D2E/DX2                !
 ! R24   R(9,23)                 1.089          estimate D2E/DX2                !
 ! R25   R(10,24)                1.0939         estimate D2E/DX2                !
 ! R26   R(10,25)                1.0927         estimate D2E/DX2                !
 ! R27   R(10,26)                1.0956         estimate D2E/DX2                !
 ! R28   R(27,28)                1.0945         estimate D2E/DX2                !
 ! R29   R(27,29)                1.0938         estimate D2E/DX2                !
 ! R30   R(27,30)                1.5615         estimate D2E/DX2                !
 ! R31   R(30,31)                1.5117         estimate D2E/DX2                !
 ! R32   R(30,33)                1.0924         estimate D2E/DX2                !
 ! R33   R(30,34)                1.0926         estimate D2E/DX2                !
 ! R34   R(31,32)                1.2461         estimate D2E/DX2                !
 ! A1    A(1,2,3)              115.17           estimate D2E/DX2                !
 ! A2    A(1,2,6)              112.4575         estimate D2E/DX2                !
 ! A3    A(3,2,6)              129.0774         estimate D2E/DX2                !
 ! A4    A(2,3,4)              112.2696         estimate D2E/DX2                !
 ! A5    A(2,3,8)              109.6409         estimate D2E/DX2                !
 ! A6    A(2,3,9)              106.8516         estimate D2E/DX2                !
 ! A7    A(4,3,8)              115.8287         estimate D2E/DX2                !
 ! A8    A(4,3,9)              104.4399         estimate D2E/DX2                !
 ! A9    A(8,3,9)              107.1737         estimate D2E/DX2                !
 ! A10   A(3,4,11)             108.0882         estimate D2E/DX2                !
 ! A11   A(3,4,12)             105.9128         estimate D2E/DX2                !
 ! A12   A(3,4,31)             126.135          estimate D2E/DX2                !
 ! A13   A(11,4,12)            105.278          estimate D2E/DX2                !
 ! A14   A(11,4,31)            106.4444         estimate D2E/DX2                !
 ! A15   A(12,4,31)            103.2337         estimate D2E/DX2                !
 ! A16   A(6,5,13)             103.1061         estimate D2E/DX2                !
 ! A17   A(6,5,14)             109.3086         estimate D2E/DX2                !
 ! A18   A(6,5,27)             121.0476         estimate D2E/DX2                !
 ! A19   A(13,5,14)            104.6873         estimate D2E/DX2                !
 ! A20   A(13,5,27)            106.323          estimate D2E/DX2                !
 ! A21   A(14,5,27)            110.8138         estimate D2E/DX2                !
 ! A22   A(2,6,5)              116.4696         estimate D2E/DX2                !
 ! A23   A(2,6,7)              105.5243         estimate D2E/DX2                !
 ! A24   A(2,6,10)             108.1258         estimate D2E/DX2                !
 ! A25   A(5,6,7)              106.1817         estimate D2E/DX2                !
 ! A26   A(5,6,10)             111.2752         estimate D2E/DX2                !
 ! A27   A(7,6,10)             108.8981         estimate D2E/DX2                !
 ! A28   A(6,7,15)             110.2331         estimate D2E/DX2                !
 ! A29   A(6,7,16)             110.5228         estimate D2E/DX2                !
 ! A30   A(6,7,17)             109.8007         estimate D2E/DX2                !
 ! A31   A(15,7,16)            108.5998         estimate D2E/DX2                !
 ! A32   A(15,7,17)            109.034          estimate D2E/DX2                !
 ! A33   A(16,7,17)            108.6094         estimate D2E/DX2                !
 ! A34   A(3,8,18)             110.2321         estimate D2E/DX2                !
 ! A35   A(3,8,19)             108.5976         estimate D2E/DX2                !
 ! A36   A(3,8,20)             113.2936         estimate D2E/DX2                !
 ! A37   A(18,8,19)            108.4136         estimate D2E/DX2                !
 ! A38   A(18,8,20)            108.5135         estimate D2E/DX2                !
 ! A39   A(19,8,20)            107.655          estimate D2E/DX2                !
 ! A40   A(3,9,21)             108.7286         estimate D2E/DX2                !
 ! A41   A(3,9,22)             110.9911         estimate D2E/DX2                !
 ! A42   A(3,9,23)             111.1794         estimate D2E/DX2                !
 ! A43   A(21,9,22)            108.9298         estimate D2E/DX2                !
 ! A44   A(21,9,23)            109.1047         estimate D2E/DX2                !
 ! A45   A(22,9,23)            107.8637         estimate D2E/DX2                !
 ! A46   A(6,10,24)            112.3331         estimate D2E/DX2                !
 ! A47   A(6,10,25)            109.3944         estimate D2E/DX2                !
 ! A48   A(6,10,26)            109.8432         estimate D2E/DX2                !
 ! A49   A(24,10,25)           107.9586         estimate D2E/DX2                !
 ! A50   A(24,10,26)           108.3153         estimate D2E/DX2                !
 ! A51   A(25,10,26)           108.9212         estimate D2E/DX2                !
 ! A52   A(5,27,28)            110.0432         estimate D2E/DX2                !
 ! A53   A(5,27,29)            106.8213         estimate D2E/DX2                !
 ! A54   A(5,27,30)            116.4628         estimate D2E/DX2                !
 ! A55   A(28,27,29)           105.6769         estimate D2E/DX2                !
 ! A56   A(28,27,30)           110.3101         estimate D2E/DX2                !
 ! A57   A(29,27,30)           106.8678         estimate D2E/DX2                !
 ! A58   A(27,30,31)           111.3614         estimate D2E/DX2                !
 ! A59   A(27,30,33)           111.2605         estimate D2E/DX2                !
 ! A60   A(27,30,34)           109.7179         estimate D2E/DX2                !
 ! A61   A(31,30,33)           109.6737         estimate D2E/DX2                !
 ! A62   A(31,30,34)           106.8868         estimate D2E/DX2                !
 ! A63   A(33,30,34)           107.7803         estimate D2E/DX2                !
 ! A64   A(4,31,30)            121.8246         estimate D2E/DX2                !
 ! A65   A(4,31,32)            117.7609         estimate D2E/DX2                !
 ! A66   A(30,31,32)           120.3907         estimate D2E/DX2                !
 ! D1    D(1,2,3,4)            140.0526         estimate D2E/DX2                !
 ! D2    D(1,2,3,8)            -89.7043         estimate D2E/DX2                !
 ! D3    D(1,2,3,9)             26.1242         estimate D2E/DX2                !
 ! D4    D(6,2,3,4)            -62.235          estimate D2E/DX2                !
 ! D5    D(6,2,3,8)             68.0081         estimate D2E/DX2                !
 ! D6    D(6,2,3,9)           -176.1633         estimate D2E/DX2                !
 ! D7    D(1,2,6,5)           -172.7189         estimate D2E/DX2                !
 ! D8    D(1,2,6,7)            -55.2402         estimate D2E/DX2                !
 ! D9    D(1,2,6,10)            61.1597         estimate D2E/DX2                !
 ! D10   D(3,2,6,5)             29.0838         estimate D2E/DX2                !
 ! D11   D(3,2,6,7)            146.5625         estimate D2E/DX2                !
 ! D12   D(3,2,6,10)           -97.0376         estimate D2E/DX2                !
 ! D13   D(2,3,4,11)           -49.2797         estimate D2E/DX2                !
 ! D14   D(2,3,4,12)          -161.6982         estimate D2E/DX2                !
 ! D15   D(2,3,4,31)            78.109          estimate D2E/DX2                !
 ! D16   D(8,3,4,11)          -176.2748         estimate D2E/DX2                !
 ! D17   D(8,3,4,12)            71.3067         estimate D2E/DX2                !
 ! D18   D(8,3,4,31)           -48.8861         estimate D2E/DX2                !
 ! D19   D(9,3,4,11)            66.1197         estimate D2E/DX2                !
 ! D20   D(9,3,4,12)           -46.2987         estimate D2E/DX2                !
 ! D21   D(9,3,4,31)          -166.4916         estimate D2E/DX2                !
 ! D22   D(2,3,8,18)          -177.5883         estimate D2E/DX2                !
 ! D23   D(2,3,8,19)            63.7778         estimate D2E/DX2                !
 ! D24   D(2,3,8,20)           -55.7774         estimate D2E/DX2                !
 ! D25   D(4,3,8,18)           -49.288          estimate D2E/DX2                !
 ! D26   D(4,3,8,19)          -167.9219         estimate D2E/DX2                !
 ! D27   D(4,3,8,20)            72.5229         estimate D2E/DX2                !
 ! D28   D(9,3,8,18)            66.7877         estimate D2E/DX2                !
 ! D29   D(9,3,8,19)           -51.8461         estimate D2E/DX2                !
 ! D30   D(9,3,8,20)          -171.4013         estimate D2E/DX2                !
 ! D31   D(2,3,9,21)          -178.908          estimate D2E/DX2                !
 ! D32   D(2,3,9,22)            61.2916         estimate D2E/DX2                !
 ! D33   D(2,3,9,23)           -58.776          estimate D2E/DX2                !
 ! D34   D(4,3,9,21)            61.9562         estimate D2E/DX2                !
 ! D35   D(4,3,9,22)           -57.8442         estimate D2E/DX2                !
 ! D36   D(4,3,9,23)          -177.9119         estimate D2E/DX2                !
 ! D37   D(8,3,9,21)           -61.443          estimate D2E/DX2                !
 ! D38   D(8,3,9,22)           178.7566         estimate D2E/DX2                !
 ! D39   D(8,3,9,23)            58.689          estimate D2E/DX2                !
 ! D40   D(3,4,31,30)           17.1261         estimate D2E/DX2                !
 ! D41   D(3,4,31,32)         -164.6437         estimate D2E/DX2                !
 ! D42   D(11,4,31,30)         145.1755         estimate D2E/DX2                !
 ! D43   D(11,4,31,32)         -36.5944         estimate D2E/DX2                !
 ! D44   D(12,4,31,30)        -104.2364         estimate D2E/DX2                !
 ! D45   D(12,4,31,32)          73.9938         estimate D2E/DX2                !
 ! D46   D(13,5,6,2)           166.9423         estimate D2E/DX2                !
 ! D47   D(13,5,6,7)            49.8252         estimate D2E/DX2                !
 ! D48   D(13,5,6,10)          -68.5279         estimate D2E/DX2                !
 ! D49   D(14,5,6,2)            56.001          estimate D2E/DX2                !
 ! D50   D(14,5,6,7)           -61.1161         estimate D2E/DX2                !
 ! D51   D(14,5,6,10)         -179.4691         estimate D2E/DX2                !
 ! D52   D(27,5,6,2)           -74.5696         estimate D2E/DX2                !
 ! D53   D(27,5,6,7)           168.3133         estimate D2E/DX2                !
 ! D54   D(27,5,6,10)           49.9602         estimate D2E/DX2                !
 ! D55   D(6,5,27,28)          -29.294          estimate D2E/DX2                !
 ! D56   D(6,5,27,29)         -143.5482         estimate D2E/DX2                !
 ! D57   D(6,5,27,30)           97.1702         estimate D2E/DX2                !
 ! D58   D(13,5,27,28)          87.5835         estimate D2E/DX2                !
 ! D59   D(13,5,27,29)         -26.6707         estimate D2E/DX2                !
 ! D60   D(13,5,27,30)        -145.9523         estimate D2E/DX2                !
 ! D61   D(14,5,27,28)        -159.2153         estimate D2E/DX2                !
 ! D62   D(14,5,27,29)          86.5305         estimate D2E/DX2                !
 ! D63   D(14,5,27,30)         -32.751          estimate D2E/DX2                !
 ! D64   D(2,6,7,15)            52.563          estimate D2E/DX2                !
 ! D65   D(2,6,7,16)           -67.4996         estimate D2E/DX2                !
 ! D66   D(2,6,7,17)           172.7034         estimate D2E/DX2                !
 ! D67   D(5,6,7,15)           176.7772         estimate D2E/DX2                !
 ! D68   D(5,6,7,16)            56.7147         estimate D2E/DX2                !
 ! D69   D(5,6,7,17)           -63.0823         estimate D2E/DX2                !
 ! D70   D(10,6,7,15)          -63.3099         estimate D2E/DX2                !
 ! D71   D(10,6,7,16)          176.6275         estimate D2E/DX2                !
 ! D72   D(10,6,7,17)           56.8305         estimate D2E/DX2                !
 ! D73   D(2,6,10,24)           59.9913         estimate D2E/DX2                !
 ! D74   D(2,6,10,25)          -59.877          estimate D2E/DX2                !
 ! D75   D(2,6,10,26)         -179.3834         estimate D2E/DX2                !
 ! D76   D(5,6,10,24)          -69.115          estimate D2E/DX2                !
 ! D77   D(5,6,10,25)          171.0167         estimate D2E/DX2                !
 ! D78   D(5,6,10,26)           51.5103         estimate D2E/DX2                !
 ! D79   D(7,6,10,24)          174.1794         estimate D2E/DX2                !
 ! D80   D(7,6,10,25)           54.311          estimate D2E/DX2                !
 ! D81   D(7,6,10,26)          -65.1953         estimate D2E/DX2                !
 ! D82   D(5,27,30,31)           3.6436         estimate D2E/DX2                !
 ! D83   D(5,27,30,33)        -119.0453         estimate D2E/DX2                !
 ! D84   D(5,27,30,34)         121.7763         estimate D2E/DX2                !
 ! D85   D(28,27,30,31)        129.9747         estimate D2E/DX2                !
 ! D86   D(28,27,30,33)          7.2858         estimate D2E/DX2                !
 ! D87   D(28,27,30,34)       -111.8925         estimate D2E/DX2                !
 ! D88   D(29,27,30,31)       -115.6129         estimate D2E/DX2                !
 ! D89   D(29,27,30,33)        121.6982         estimate D2E/DX2                !
 ! D90   D(29,27,30,34)          2.5199         estimate D2E/DX2                !
 ! D91   D(27,30,31,4)         -76.7768         estimate D2E/DX2                !
 ! D92   D(27,30,31,32)        105.0388         estimate D2E/DX2                !
 ! D93   D(33,30,31,4)          46.8192         estimate D2E/DX2                !
 ! D94   D(33,30,31,32)       -131.3652         estimate D2E/DX2                !
 ! D95   D(34,30,31,4)         163.3994         estimate D2E/DX2                !
 ! D96   D(34,30,31,32)        -14.785          estimate D2E/DX2                !
 --------------------------------------------------------------------------------
 Trust Radius=3.00D-01 FncErr=1.00D-07 GrdErr=1.00D-06 EigMax=2.50D+02 EigMin=1.00D-04
 Number of steps in this run=    204 maximum allowed number of steps=    204.
 GradGradGradGradGradGradGradGradGradGradGradGradGradGradGradGradGradGrad

 Leave Link  103 at Thu Jan  9 07:57:52 2025, MaxMem=  4026531840 cpu:               0.3 elap:               0.0
 (Enter /usr/local/intel/g16/l202.exe)
                          Input orientation:                          
 ---------------------------------------------------------------------
 Center     Atomic      Atomic             Coordinates (Angstroms)
 Number     Number       Type             X           Y           Z
 ---------------------------------------------------------------------
      1          8           0        2.354352    1.105868   -0.327537
      2          7           0        1.165735    0.521149   -0.263445
      3          6           0        0.031287    1.418902    0.164178
      4          6           0       -1.271270    1.145951   -0.639718
      5          6           0       -0.067022   -1.775565   -0.292960
      6          6           0        1.266525   -0.988120   -0.194781
      7          6           0        2.105556   -1.404265   -1.428993
      8          6           0       -0.107476    1.383629    1.704692
      9          6           0        0.430865    2.865272   -0.226525
     10          6           0        2.045311   -1.360656    1.089393
     11          1           0       -1.017155    1.134670   -1.705750
     12          1           0       -1.902863    2.035796   -0.501728
     13          1           0        0.264958   -2.806452   -0.463171
     14          1           0       -0.586794   -1.494715   -1.216843
     15          1           0        3.040253   -0.843063   -1.456261
     16          1           0        1.552358   -1.206863   -2.353753
     17          1           0        2.332835   -2.474509   -1.379364
     18          1           0       -0.956351    1.999229    2.022917
     19          1           0        0.804265    1.796994    2.146795
     20          1           0       -0.241057    0.377828    2.102444
     21          1           0       -0.366044    3.547780    0.088940
     22          1           0        0.567785    2.955378   -1.308030
     23          1           0        1.362893    3.159334    0.253837
     24          1           0        1.549876   -0.999761    1.995398
     25          1           0        3.042609   -0.915880    1.050821
     26          1           0        2.144414   -2.449419    1.161587
     27          6           0       -1.054373   -1.827365    0.900404
     28          1           0       -0.507126   -1.739084    1.844141
     29          1           0       -1.492512   -2.829548    0.905450
     30          6           0       -2.241805   -0.813905    0.865578
     31          6           0       -2.242321   -0.010097   -0.414717
     32          8           0       -3.069682   -0.256385   -1.313330
     33          1           0       -2.211560   -0.138676    1.723728
     34          1           0       -3.189941   -1.355645    0.900569
 ---------------------------------------------------------------------
                    Distance matrix (angstroms):
                    1          2          3          4          5
     1  O    0.000000
     2  N    1.326203   0.000000
     3  C    2.395079   1.508574   0.000000
     4  C    3.639258   2.543807   1.554801   0.000000
     5  C    3.763895   2.606810   3.228507   3.178948   0.000000
     6  C    2.363425   1.514188   2.729179   3.345539   1.551791
     7  C    2.752430   2.439054   3.848514   4.304592   2.479623
     8  C    3.204326   2.497699   1.547153   2.628149   3.738015
     9  C    2.608737   2.456890   1.550580   2.454395   4.667941
    10  C    2.861283   2.478914   3.555033   4.502512   2.558320
    11  H    3.642439   2.687315   2.162556   1.095959   3.371676
    12  H    4.361076   3.430339   2.136569   1.099898   4.235607
    13  H    4.437365   3.453146   4.278059   4.244132   1.096317
    14  H    4.025449   2.836201   3.283048   2.788314   1.096631
    15  H    2.354317   2.607240   4.098315   4.817899   3.446446
    16  H    3.177652   2.739505   3.943130   4.055432   2.681917
    17  H    3.731743   3.403140   4.778943   5.161819   2.725456
    18  H    4.157341   3.451872   2.183373   2.813696   4.516997
    19  H    3.000457   2.750945   2.161300   3.535019   4.413017
    20  H    3.629187   2.756272   2.216953   3.028334   3.225732
    21  H    3.679258   3.410428   2.166946   2.668175   5.345397
    22  H    2.752067   2.715543   2.194535   2.665106   4.880079
    23  H    2.353234   2.695639   2.193243   3.433798   5.166902
    24  H    3.236801   2.750110   3.392552   4.416648   2.907372
    25  H    2.541856   2.704626   3.912212   5.071353   3.494941
    26  H    3.860263   3.436976   4.519296   5.276200   2.731343
    27  C    4.661663   3.434959   3.501276   3.355537   1.549730
    28  H    4.582357   3.514120   3.617325   3.882898   2.182252
    29  H    5.639691   4.433933   4.573923   4.270958   2.139880
    30  C    5.121885   3.829934   3.262566   2.654975   2.645124
    31  C    4.731002   3.452528   2.747080   1.526438   2.804216
    32  O    5.678703   4.432333   3.821731   2.377937   3.516394
    33  H    5.157919   3.973707   3.144616   2.849612   3.368305
    34  H    6.189223   4.883564   4.314707   3.508812   3.369491
                    6          7          8          9         10
     6  C    0.000000
     7  C    1.549332   0.000000
     8  C    3.334827   4.742346   0.000000
     9  C    3.943091   4.741251   2.492925   0.000000
    10  C    1.547383   2.519484   3.541777   4.711321   0.000000
    11  H    3.464745   4.034118   3.538448   2.698120   4.839233
    12  H    4.391276   5.362953   2.918394   2.491998   5.445698
    13  H    2.093204   2.507338   4.732348   5.679083   2.769556
    14  H    2.176245   2.702210   4.129162   4.585395   3.502096
    15  H    2.181395   1.090573   4.985778   4.698181   2.781756
    16  H    2.188769   1.095526   5.092806   4.729178   3.481653
    17  H    2.179359   1.095236   5.509242   5.784444   2.723619
    18  H    4.334007   5.733649   1.095819   2.781077   4.601116
    19  H    3.667904   4.972693   1.094348   2.629314   3.553737
    20  H    3.068527   4.599293   1.089810   3.473176   3.045665
    21  H    4.829096   5.738961   2.713128   1.095627   5.559522
    22  H    4.156770   4.624485   3.464515   1.093855   5.153530
    23  H    4.172759   4.920356   2.723985   1.088989   4.646951
    24  H    2.208463   3.492686   2.917512   4.596478   1.093867
    25  H    2.170534   2.695564   3.954532   4.769689   1.092665
    26  H    2.178490   2.793736   4.478641   5.754046   1.095645
    27  C    2.700061   3.948450   3.442960   5.049430   3.140314
    28  H    2.804815   4.201383   3.151270   5.134937   2.688454
    29  H    3.494803   4.519640   4.506437   6.116512   3.835058
    30  C    3.669209   4.951073   3.176260   4.676772   4.327631
    31  C    3.649233   4.677232   3.315408   3.930533   4.740268
    32  O    4.537541   5.302273   4.535721   4.814532   5.758094
    33  H    4.061934   5.493529   2.597103   4.450798   4.473988
    34  H    4.603798   5.785457   4.201408   5.674215   5.238659
                   11         12         13         14         15
    11  H    0.000000
    12  H    1.745330   0.000000
    13  H    4.326691   5.305497   0.000000
    14  H    2.708857   3.835093   1.736133   0.000000
    15  H    4.520645   5.799427   3.541664   3.692891   0.000000
    16  H    3.536252   5.087572   2.791126   2.439548   1.775295
    17  H    4.935092   6.249339   2.285981   3.083933   1.779879
    18  H    3.828070   2.696489   5.546783   4.779149   6.012998
    19  H    4.312580   3.794765   5.319256   4.907591   4.995153
    20  H    3.959480   3.506019   4.120445   3.826698   4.992189
    21  H    3.077005   2.235352   6.409310   5.213497   5.768016
    22  H    2.446466   2.756784   5.831310   4.598336   4.534669
    23  H    3.688343   3.535305   6.108205   5.255887   4.664456
    24  H    4.984370   5.231792   3.310545   3.889580   3.762941
    25  H    5.318376   5.964939   3.685347   4.318555   2.508140
    26  H    5.573404   6.266117   2.509914   3.745382   3.199380
    27  C    3.945513   4.196418   2.135084   2.193632   4.825835
    28  H    4.595685   4.658423   2.656892   3.071756   4.927414
    29  H    4.770676   5.081349   2.227635   2.665752   5.483590
    30  C    3.450861   3.178868   3.466941   2.745731   5.769915
    31  C    2.116197   2.075688   3.756115   2.363951   5.448324
    32  O    2.510357   2.697083   4.283157   2.776239   6.139701
    33  H    3.848290   3.126704   4.246492   3.622936   6.179808
    34  H    4.208986   3.889072   3.987600   3.358444   6.680771
                   16         17         18         19         20
    16  H    0.000000
    17  H    1.779187   0.000000
    18  H    5.977281   6.512188   0.000000
    19  H    5.462393   5.745960   1.776517   0.000000
    20  H    5.058189   5.184953   1.773954   1.763150   0.000000
    21  H    5.679229   6.760757   2.546908   2.944426   3.757448
    22  H    4.403087   5.710006   3.785818   3.651519   4.350784
    23  H    5.089116   5.945445   3.139169   2.398192   3.704967
    24  H    4.354080   3.765226   3.908436   2.898395   2.262002
    25  H    3.727820   2.973029   5.043264   3.683888   3.682669
    26  H    3.775194   2.548051   5.490638   4.560555   3.816937
    27  C    4.215401   4.133923   3.989043   4.259578   2.639935
    28  H    4.706065   4.358579   3.769449   3.783542   2.149146
    29  H    4.746235   4.469867   4.985307   5.312345   3.645023
    30  C    4.991411   5.359543   3.302355   4.211514   2.636865
    31  C    4.426251   5.285444   3.410743   4.371339   3.239081
    32  O    4.832095   5.840516   4.548022   5.585364   4.480051
    33  H    5.651013   5.978028   2.497139   3.608463   2.071976
    34  H    5.753447   6.078734   4.183751   5.238883   3.625652
                   21         22         23         24         25
    21  H    0.000000
    22  H    1.781713   0.000000
    23  H    1.779692   1.764433   0.000000
    24  H    5.290129   5.245976   4.512878   0.000000
    25  H    5.698104   5.164840   4.479285   1.768478   0.000000
    26  H    6.589337   6.147894   5.735233   1.774887   1.780664
    27  C    5.479457   5.512097   5.579282   2.943816   4.199844
    28  H    5.572393   5.755831   5.479100   2.191058   3.729295
    29  H    6.527322   6.527610   6.666682   3.713789   4.924488
    30  C    4.811023   5.179369   5.399510   3.960793   5.288643
    31  C    4.053711   4.181955   4.846630   4.600962   5.558663
    32  O    4.873160   4.852486   5.811271   5.730672   6.586672
    33  H    4.434909   5.146794   5.080764   3.868291   5.353797
    34  H    5.716355   6.130525   6.444501   4.877619   6.249852
                   26         27         28         29         30
    26  H    0.000000
    27  C    3.269160   0.000000
    28  H    2.828625   1.094492   0.000000
    29  H    3.665697   1.093783   1.743915   0.000000
    30  C    4.690570   1.561508   2.196054   2.150778   0.000000
    31  C    5.261033   2.538351   3.332077   3.202243   1.511709
    32  O    6.174254   3.380838   4.328361   3.745880   2.396633
    33  H    4.962867   2.206494   2.341132   2.902999   1.092369
    34  H    5.451588   2.187046   2.869643   2.248039   1.092551
                   31         32         33         34
    31  C    0.000000
    32  O    1.246070   0.000000
    33  H    2.142528   3.158156   0.000000
    34  H    2.106765   2.474709   1.765172   0.000000
 Stoichiometry    C11H20NO2(2)
 Framework group  C1[X(C11H20NO2)]
 Deg. of freedom    96
 Full point group                 C1      NOp   1
 Largest Abelian subgroup         C1      NOp   1
 Largest concise Abelian subgroup C1      NOp   1
                         Standard orientation:                         
 ---------------------------------------------------------------------
 Center     Atomic      Atomic             Coordinates (Angstroms)
 Number     Number       Type             X           Y           Z
 ---------------------------------------------------------------------
      1          8           0        2.354352    1.105868   -0.327537
      2          7           0        1.165735    0.521149   -0.263445
      3          6           0        0.031287    1.418902    0.164178
      4          6           0       -1.271270    1.145951   -0.639718
      5          6           0       -0.067022   -1.775565   -0.292960
      6          6           0        1.266525   -0.988120   -0.194781
      7          6           0        2.105556   -1.404265   -1.428993
      8          6           0       -0.107476    1.383629    1.704692
      9          6           0        0.430865    2.865272   -0.226525
     10          6           0        2.045311   -1.360656    1.089393
     11          1           0       -1.017155    1.134670   -1.705750
     12          1           0       -1.902863    2.035796   -0.501728
     13          1           0        0.264958   -2.806452   -0.463171
     14          1           0       -0.586794   -1.494715   -1.216843
     15          1           0        3.040253   -0.843063   -1.456261
     16          1           0        1.552358   -1.206863   -2.353753
     17          1           0        2.332835   -2.474509   -1.379364
     18          1           0       -0.956351    1.999229    2.022917
     19          1           0        0.804265    1.796994    2.146795
     20          1           0       -0.241057    0.377828    2.102444
     21          1           0       -0.366044    3.547780    0.088940
     22          1           0        0.567785    2.955378   -1.308030
     23          1           0        1.362893    3.159334    0.253837
     24          1           0        1.549876   -0.999761    1.995398
     25          1           0        3.042609   -0.915880    1.050821
     26          1           0        2.144414   -2.449419    1.161587
     27          6           0       -1.054373   -1.827365    0.900404
     28          1           0       -0.507126   -1.739084    1.844141
     29          1           0       -1.492512   -2.829548    0.905450
     30          6           0       -2.241805   -0.813905    0.865578
     31          6           0       -2.242321   -0.010097   -0.414717
     32          8           0       -3.069682   -0.256385   -1.313330
     33          1           0       -2.211560   -0.138676    1.723728
     34          1           0       -3.189941   -1.355645    0.900569
 ---------------------------------------------------------------------
 Rotational constants (GHZ):           0.8591157           0.6531711           0.5001339
 Leave Link  202 at Thu Jan  9 07:57:52 2025, MaxMem=  4026531840 cpu:               0.1 elap:               0.0
 (Enter /usr/local/intel/g16/l301.exe)
 Standard basis: def2TZVP (5D, 7F)
 Ernie: Thresh=  0.10000D-02 Tol=  0.10000D-05 Strict=F.
 There are   624 symmetry adapted cartesian basis functions of A   symmetry.
 There are   554 symmetry adapted basis functions of A   symmetry.
   554 basis functions,   874 primitive gaussians,   624 cartesian basis functions
    55 alpha electrons       54 beta electrons
       nuclear repulsion energy      1024.8333561515 Hartrees.
 IExCor= 4336 DFT=T Ex+Corr=M062X ExCW=0 ScaHFX=  0.540000
 ScaDFX=  1.000000  1.000000  1.000000  1.000000 ScalE2=  1.000000  1.000000
 IRadAn=      5 IRanWt=     -1 IRanGd=            0 ICorTp=0 IEmpDi=  4
 NAtoms=   34 NActive=   34 NUniq=   34 SFac= 1.00D+00 NAtFMM=   60 NAOKFM=F Big=F
 Integral buffers will be    131072 words long.
 Raffenetti 2 integral format.
 Two-electron integral symmetry is turned on.
 Leave Link  301 at Thu Jan  9 07:57:52 2025, MaxMem=  4026531840 cpu:               1.2 elap:               0.1
 (Enter /usr/local/intel/g16/l302.exe)
 NPDir=0 NMtPBC=     1 NCelOv=     1 NCel=       1 NClECP=     1 NCelD=      1
         NCelK=      1 NCelE2=     1 NClLst=     1 CellRange=     0.0.
 One-electron integrals computed using PRISM.
 One-electron integral symmetry used in STVInt
   1 Symmetry operations used in ECPInt.
 ECPInt:  NShTT=   27495 NPrTT=   80568 LenC2=   26482 LenP2D=   59216.
 LDataN:  DoStor=T MaxTD1= 6 Len=  172
 NBasis=   554 RedAO= T EigKep=  3.86D-05  NBF=   554
 NBsUse=   554 1.00D-06 EigRej= -1.00D+00 NBFU=   554
 Precomputing XC quadrature grid using
 IXCGrd= 4 IRadAn=           5 IRanWt=          -1 IRanGd=           0 AccXCQ= 0.00D+00.
 Generated NRdTot=       0 NPtTot=           0 NUsed=           0 NTot=          32
 NSgBfM=   619   619   619   619   619 MxSgAt=    34 MxSgA2=    34.
 Leave Link  302 at Thu Jan  9 07:57:53 2025, MaxMem=  4026531840 cpu:              21.0 elap:               1.1
 (Enter /usr/local/intel/g16/l303.exe)
 DipDrv:  MaxL=1.
 Leave Link  303 at Thu Jan  9 07:57:53 2025, MaxMem=  4026531840 cpu:               3.0 elap:               0.2
 (Enter /usr/local/intel/g16/l401.exe)
 ExpMin= 9.52D-02 ExpMax= 2.70D+04 ExpMxC= 9.22D+02 IAcc=3 IRadAn=         5 AccDes= 0.00D+00
 Harris functional with IExCor= 1009 and IRadAn=       5 diagonalized for initial guess.
 HarFok:  IExCor= 1009 AccDes= 0.00D+00 IRadAn=         5 IDoV= 1 UseB2=F ITyADJ=14
 ICtDFT=  3500011 ScaDFX=  1.000000  1.000000  1.000000  1.000000
 FoFCou: FMM=F IPFlag=           0 FMFlag=      100000 FMFlg1=           0
         NFxFlg=           0 DoJE=T BraDBF=F KetDBF=T FulRan=T
         wScrn=  0.000000 ICntrl=       500 IOpCl=  0 I1Cent=   200000004 NGrid=           0
         NMat0=    1 NMatS0=      1 NMatT0=    0 NMatD0=    1 NMtDS0=    0 NMtDT0=    0
 Petite list used in FoFCou.
 Harris En= -636.046201388419    
 JPrj=0 DoOrth=F DoCkMO=F.
 Initial guess <Sx>= 0.0000 <Sy>= 0.0000 <Sz>= 0.5000 <S**2>= 0.7500 S= 0.5000
 Leave Link  401 at Thu Jan  9 07:57:57 2025, MaxMem=  4026531840 cpu:              63.6 elap:               3.2
 (Enter /usr/local/intel/g16/l502.exe)
 Integral symmetry usage will be decided dynamically.
 UHF open shell SCF:
 Using DIIS extrapolation, IDIIS=  1040.
 NGot=  4026531840 LenX=  4025734074 LenY=  4025344074
 Requested convergence on RMS density matrix=1.00D-08 within 128 cycles.
 Requested convergence on MAX density matrix=1.00D-06.
 Requested convergence on             energy=1.00D-06.
 No special actions if energy rises.
 Fock matrices will be formed incrementally for  20 cycles.
 Integral accuracy reduced to 1.0D-05 until final iterations.

 Cycle   1  Pass 0  IDiag  1:
 FoFJK:  IHMeth= 1 ICntrl=       0 DoSepK=F KAlg= 0 I1Cent=           0 FoldK=F
 IRaf= 920000000 NMat=       1 IRICut=       1 DoRegI=T DoRafI=F ISym2E= 0 IDoP0=0 IntGTp=1.
 FoFCou: FMM=F IPFlag=           0 FMFlag=      100000 FMFlg1=           0
         NFxFlg=           0 DoJE=F BraDBF=F KetDBF=F FulRan=T
         wScrn=  0.000000 ICntrl=         0 IOpCl=  1 I1Cent=           0 NGrid=           0
         NMat0=    1 NMatS0=      1 NMatT0=    0 NMatD0=    1 NMtDS0=    0 NMtDT0=    0
 Symmetry not used in FoFCou.
 E= -635.774779534239    
 DIIS: error= 1.89D-02 at cycle   1 NSaved=   1.
 NSaved= 1 IEnMin= 1 EnMin= -635.774779534239     IErMin= 1 ErrMin= 1.89D-02
 ErrMax= 1.89D-02  0.00D+00 EMaxC= 1.00D-01 BMatC= 2.47D+00 BMatP= 2.47D+00
 IDIUse=3 WtCom= 8.11D-01 WtEn= 1.89D-01
 Coeff-Com:  0.100D+01
 Coeff-En:   0.100D+01
 Coeff:      0.100D+01
 Gap=     0.312 Goal=   None    Shift=    0.000
 Gap=     0.210 Goal=   None    Shift=    0.000
 GapD=    0.210 DampG=1.000 DampE=0.500 DampFc=0.5000 IDamp=-1.
 Damping current iteration by 5.00D-01
 RMSDP=4.06D-03 MaxDP=7.49D-01              OVMax= 1.67D-01

 Cycle   2  Pass 0  IDiag  1:
 RMSU=  2.03D-03    CP:  9.98D-01
 E= -636.016650154690     Delta-E=       -0.241870620451 Rises=F Damp=T
 DIIS: error= 5.16D-03 at cycle   2 NSaved=   2.
 NSaved= 2 IEnMin= 2 EnMin= -636.016650154690     IErMin= 2 ErrMin= 5.16D-03
 ErrMax= 5.16D-03  0.00D+00 EMaxC= 1.00D-01 BMatC= 2.08D-01 BMatP= 2.47D+00
 IDIUse=3 WtCom= 9.48D-01 WtEn= 5.16D-02
 Coeff-Com: -0.798D-02 0.101D+01
 Coeff-En:   0.000D+00 0.100D+01
 Coeff:     -0.756D-02 0.101D+01
 Gap=     0.325 Goal=   None    Shift=    0.000
 Gap=     0.310 Goal=   None    Shift=    0.000
 RMSDP=1.11D-03 MaxDP=1.57D-01 DE=-2.42D-01 OVMax= 1.55D-01

 Cycle   3  Pass 0  IDiag  1:
 RMSU=  1.04D-03    CP:  9.82D-01  8.13D-01
 E= -636.246774347492     Delta-E=       -0.230124192802 Rises=F Damp=F
 DIIS: error= 7.11D-03 at cycle   3 NSaved=   3.
 NSaved= 3 IEnMin= 3 EnMin= -636.246774347492     IErMin= 2 ErrMin= 5.16D-03
 ErrMax= 7.11D-03  0.00D+00 EMaxC= 1.00D-01 BMatC= 1.61D-01 BMatP= 2.08D-01
 IDIUse=3 WtCom= 9.29D-01 WtEn= 7.11D-02
 Coeff-Com: -0.690D-01 0.500D+00 0.569D+00
 Coeff-En:   0.000D+00 0.000D+00 0.100D+01
 Coeff:     -0.641D-01 0.464D+00 0.600D+00
 Gap=     0.285 Goal=   None    Shift=    0.000
 Gap=     0.299 Goal=   None    Shift=    0.000
 RMSDP=4.40D-04 MaxDP=5.24D-02 DE=-2.30D-01 OVMax= 9.05D-02

 Cycle   4  Pass 0  IDiag  1:
 RMSU=  3.81D-04    CP:  9.88D-01  9.13D-01  9.26D-01
 E= -636.269996992896     Delta-E=       -0.023222645405 Rises=F Damp=F
 DIIS: error= 3.15D-03 at cycle   4 NSaved=   4.
 NSaved= 4 IEnMin= 4 EnMin= -636.269996992896     IErMin= 4 ErrMin= 3.15D-03
 ErrMax= 3.15D-03  0.00D+00 EMaxC= 1.00D-01 BMatC= 3.85D-02 BMatP= 1.61D-01
 IDIUse=3 WtCom= 9.68D-01 WtEn= 3.15D-02
 Coeff-Com: -0.203D-01 0.641D-01 0.347D+00 0.610D+00
 Coeff-En:   0.000D+00 0.000D+00 0.214D+00 0.786D+00
 Coeff:     -0.197D-01 0.621D-01 0.342D+00 0.615D+00
 Gap=     0.282 Goal=   None    Shift=    0.000
 Gap=     0.300 Goal=   None    Shift=    0.000
 RMSDP=2.10D-04 MaxDP=2.74D-02 DE=-2.32D-02 OVMax= 1.86D-02

 Cycle   5  Pass 0  IDiag  1:
 RMSU=  1.10D-04    CP:  9.83D-01  8.66D-01  9.73D-01  6.36D-01
 E= -636.277342411212     Delta-E=       -0.007345418316 Rises=F Damp=F
 DIIS: error= 5.22D-04 at cycle   5 NSaved=   5.
 NSaved= 5 IEnMin= 5 EnMin= -636.277342411212     IErMin= 5 ErrMin= 5.22D-04
 ErrMax= 5.22D-04  0.00D+00 EMaxC= 1.00D-01 BMatC= 6.05D-04 BMatP= 3.85D-02
 IDIUse=3 WtCom= 9.95D-01 WtEn= 5.22D-03
 Coeff-Com: -0.309D-02 0.139D-02 0.106D+00 0.216D+00 0.681D+00
 Coeff-En:   0.000D+00 0.000D+00 0.000D+00 0.000D+00 0.100D+01
 Coeff:     -0.307D-02 0.138D-02 0.105D+00 0.214D+00 0.682D+00
 Gap=     0.280 Goal=   None    Shift=    0.000
 Gap=     0.301 Goal=   None    Shift=    0.000
 RMSDP=4.11D-05 MaxDP=3.57D-03 DE=-7.35D-03 OVMax= 8.42D-03

 Cycle   6  Pass 0  IDiag  1:
 RMSU=  3.35D-05    CP:  9.84D-01  8.66D-01  9.86D-01  6.80D-01  9.12D-01
 E= -636.277502777829     Delta-E=       -0.000160366617 Rises=F Damp=F
 DIIS: error= 2.78D-04 at cycle   6 NSaved=   6.
 NSaved= 6 IEnMin= 6 EnMin= -636.277502777829     IErMin= 6 ErrMin= 2.78D-04
 ErrMax= 2.78D-04  0.00D+00 EMaxC= 1.00D-01 BMatC= 1.39D-04 BMatP= 6.05D-04
 IDIUse=3 WtCom= 9.97D-01 WtEn= 2.78D-03
 Coeff-Com:  0.286D-02-0.104D-01-0.963D-02-0.237D-01 0.241D+00 0.800D+00
 Coeff-En:   0.000D+00 0.000D+00 0.000D+00 0.000D+00 0.000D+00 0.100D+01
 Coeff:      0.285D-02-0.104D-01-0.961D-02-0.236D-01 0.241D+00 0.800D+00
 Gap=     0.282 Goal=   None    Shift=    0.000
 Gap=     0.301 Goal=   None    Shift=    0.000
 RMSDP=2.69D-05 MaxDP=2.60D-03 DE=-1.60D-04 OVMax= 3.95D-03

 Cycle   7  Pass 0  IDiag  1:
 RMSU=  1.45D-05    CP:  9.83D-01  8.61D-01  9.92D-01  6.75D-01  1.07D+00
                    CP:  1.28D+00
 E= -636.277553357137     Delta-E=       -0.000050579308 Rises=F Damp=F
 DIIS: error= 9.61D-05 at cycle   7 NSaved=   7.
 NSaved= 7 IEnMin= 7 EnMin= -636.277553357137     IErMin= 7 ErrMin= 9.61D-05
 ErrMax= 9.61D-05  0.00D+00 EMaxC= 1.00D-01 BMatC= 2.49D-05 BMatP= 1.39D-04
 IDIUse=1 WtCom= 1.00D+00 WtEn= 0.00D+00
 Coeff-Com:  0.163D-02-0.303D-02-0.205D-01-0.566D-01-0.961D-01 0.141D+00
 Coeff-Com:  0.103D+01
 Coeff:      0.163D-02-0.303D-02-0.205D-01-0.566D-01-0.961D-01 0.141D+00
 Coeff:      0.103D+01
 Gap=     0.282 Goal=   None    Shift=    0.000
 Gap=     0.302 Goal=   None    Shift=    0.000
 RMSDP=1.85D-05 MaxDP=2.90D-03 DE=-5.06D-05 OVMax= 4.42D-03

 Cycle   8  Pass 0  IDiag  1:
 RMSU=  7.02D-06    CP:  9.83D-01  8.57D-01  9.96D-01  6.69D-01  1.15D+00
                    CP:  1.52D+00  1.36D+00
 E= -636.277569098967     Delta-E=       -0.000015741830 Rises=F Damp=F
 DIIS: error= 7.98D-05 at cycle   8 NSaved=   8.
 NSaved= 8 IEnMin= 8 EnMin= -636.277569098967     IErMin= 8 ErrMin= 7.98D-05
 ErrMax= 7.98D-05  0.00D+00 EMaxC= 1.00D-01 BMatC= 9.59D-06 BMatP= 2.49D-05
 IDIUse=1 WtCom= 1.00D+00 WtEn= 0.00D+00
 Coeff-Com:  0.538D-03-0.286D-03-0.896D-02-0.289D-01-0.862D-01-0.495D-01
 Coeff-Com:  0.564D+00 0.609D+00
 Coeff:      0.538D-03-0.286D-03-0.896D-02-0.289D-01-0.862D-01-0.495D-01
 Coeff:      0.564D+00 0.609D+00
 Gap=     0.282 Goal=   None    Shift=    0.000
 Gap=     0.302 Goal=   None    Shift=    0.000
 RMSDP=6.32D-06 MaxDP=5.26D-04 DE=-1.57D-05 OVMax= 1.07D-03

 Initial convergence to 1.0D-05 achieved.  Increase integral accuracy.
 Cycle   9  Pass 1  IDiag  1:
 E= -636.277660992905     Delta-E=       -0.000091893938 Rises=F Damp=F
 DIIS: error= 7.60D-05 at cycle   1 NSaved=   1.
 NSaved= 1 IEnMin= 1 EnMin= -636.277660992905     IErMin= 1 ErrMin= 7.60D-05
 ErrMax= 7.60D-05  0.00D+00 EMaxC= 1.00D-01 BMatC= 2.46D-05 BMatP= 2.46D-05
 IDIUse=1 WtCom= 1.00D+00 WtEn= 0.00D+00
 Coeff-Com:  0.100D+01
 Coeff:      0.100D+01
 Gap=     0.282 Goal=   None    Shift=    0.000
 Gap=     0.302 Goal=   None    Shift=    0.000
 RMSDP=6.32D-06 MaxDP=5.26D-04 DE=-9.19D-05 OVMax= 6.33D-04

 Cycle  10  Pass 1  IDiag  1:
 RMSU=  5.29D-05    CP:  1.00D+00
 E= -636.277663837679     Delta-E=       -0.000002844774 Rises=F Damp=F
 DIIS: error= 2.17D-05 at cycle   2 NSaved=   2.
 NSaved= 2 IEnMin= 2 EnMin= -636.277663837679     IErMin= 2 ErrMin= 2.17D-05
 ErrMax= 2.17D-05  0.00D+00 EMaxC= 1.00D-01 BMatC= 2.94D-06 BMatP= 2.46D-05
 IDIUse=1 WtCom= 1.00D+00 WtEn= 0.00D+00
 Coeff-Com:  0.130D+00 0.870D+00
 Coeff:      0.130D+00 0.870D+00
 Gap=     0.282 Goal=   None    Shift=    0.000
 Gap=     0.302 Goal=   None    Shift=    0.000
 RMSDP=4.75D-06 MaxDP=7.99D-04 DE=-2.84D-06 OVMax= 4.14D-04

 Cycle  11  Pass 1  IDiag  1:
 RMSU=  4.35D-06    CP:  1.00D+00  1.03D+00
 E= -636.277663678179     Delta-E=        0.000000159500 Rises=F Damp=F
 DIIS: error= 2.82D-05 at cycle   3 NSaved=   3.
 NSaved= 3 IEnMin= 2 EnMin= -636.277663837679     IErMin= 2 ErrMin= 2.17D-05
 ErrMax= 2.82D-05  0.00D+00 EMaxC= 1.00D-01 BMatC= 4.94D-06 BMatP= 2.94D-06
 IDIUse=1 WtCom= 1.00D+00 WtEn= 0.00D+00
 Coeff-Com: -0.162D-01 0.574D+00 0.443D+00
 Coeff:     -0.162D-01 0.574D+00 0.443D+00
 Gap=     0.282 Goal=   None    Shift=    0.000
 Gap=     0.302 Goal=   None    Shift=    0.000
 RMSDP=2.46D-06 MaxDP=4.89D-04 DE= 1.59D-07 OVMax= 2.20D-04

 Cycle  12  Pass 1  IDiag  1:
 RMSU=  1.36D-06    CP:  1.00D+00  1.04D+00  5.58D-01
 E= -636.277664605952     Delta-E=       -0.000000927773 Rises=F Damp=F
 DIIS: error= 9.31D-06 at cycle   4 NSaved=   4.
 NSaved= 4 IEnMin= 4 EnMin= -636.277664605952     IErMin= 4 ErrMin= 9.31D-06
 ErrMax= 9.31D-06  0.00D+00 EMaxC= 1.00D-01 BMatC= 6.11D-08 BMatP= 2.94D-06
 IDIUse=1 WtCom= 1.00D+00 WtEn= 0.00D+00
 Coeff-Com: -0.327D-02-0.119D+00-0.660D-01 0.119D+01
 Coeff:     -0.327D-02-0.119D+00-0.660D-01 0.119D+01
 Gap=     0.282 Goal=   None    Shift=    0.000
 Gap=     0.302 Goal=   None    Shift=    0.000
 RMSDP=8.80D-07 MaxDP=7.51D-05 DE=-9.28D-07 OVMax= 2.75D-04

 Cycle  13  Pass 1  IDiag  1:
 RMSU=  4.37D-07    CP:  1.00D+00  1.04D+00  6.38D-01  1.49D+00
 E= -636.277664668257     Delta-E=       -0.000000062305 Rises=F Damp=F
 DIIS: error= 7.23D-06 at cycle   5 NSaved=   5.
 NSaved= 5 IEnMin= 5 EnMin= -636.277664668257     IErMin= 5 ErrMin= 7.23D-06
 ErrMax= 7.23D-06  0.00D+00 EMaxC= 1.00D-01 BMatC= 6.56D-08 BMatP= 6.11D-08
 IDIUse=1 WtCom= 1.00D+00 WtEn= 0.00D+00
 Coeff-Com:  0.616D-02-0.402D+00-0.292D+00 0.858D+00 0.829D+00
 Coeff:      0.616D-02-0.402D+00-0.292D+00 0.858D+00 0.829D+00
 Gap=     0.282 Goal=   None    Shift=    0.000
 Gap=     0.302 Goal=   None    Shift=    0.000
 RMSDP=8.24D-07 MaxDP=6.41D-05 DE=-6.23D-08 OVMax= 1.91D-04

 Cycle  14  Pass 1  IDiag  1:
 RMSU=  2.64D-07    CP:  1.00D+00  1.04D+00  6.89D-01  2.02D+00  1.51D+00
 E= -636.277664698255     Delta-E=       -0.000000029998 Rises=F Damp=F
 DIIS: error= 1.72D-06 at cycle   6 NSaved=   6.
 NSaved= 6 IEnMin= 6 EnMin= -636.277664698255     IErMin= 6 ErrMin= 1.72D-06
 ErrMax= 1.72D-06  0.00D+00 EMaxC= 1.00D-01 BMatC= 5.36D-09 BMatP= 6.11D-08
 IDIUse=1 WtCom= 1.00D+00 WtEn= 0.00D+00
 Coeff-Com:  0.335D-02-0.177D+00-0.130D+00 0.309D+00 0.402D+00 0.592D+00
 Coeff:      0.335D-02-0.177D+00-0.130D+00 0.309D+00 0.402D+00 0.592D+00
 Gap=     0.282 Goal=   None    Shift=    0.000
 Gap=     0.302 Goal=   None    Shift=    0.000
 RMSDP=9.11D-08 MaxDP=1.09D-05 DE=-3.00D-08 OVMax= 3.83D-05

 Cycle  15  Pass 1  IDiag  1:
 RMSU=  7.77D-08    CP:  1.00D+00  1.04D+00  6.83D-01  2.04D+00  1.56D+00
                    CP:  1.03D+00
 E= -636.277664699577     Delta-E=       -0.000000001323 Rises=F Damp=F
 DIIS: error= 6.28D-07 at cycle   7 NSaved=   7.
 NSaved= 7 IEnMin= 7 EnMin= -636.277664699577     IErMin= 7 ErrMin= 6.28D-07
 ErrMax= 6.28D-07  0.00D+00 EMaxC= 1.00D-01 BMatC= 9.32D-10 BMatP= 5.36D-09
 IDIUse=1 WtCom= 1.00D+00 WtEn= 0.00D+00
 Coeff-Com:  0.745D-03-0.288D-01-0.222D-01 0.179D-01 0.618D-01 0.300D+00
 Coeff-Com:  0.671D+00
 Coeff:      0.745D-03-0.288D-01-0.222D-01 0.179D-01 0.618D-01 0.300D+00
 Coeff:      0.671D+00
 Gap=     0.282 Goal=   None    Shift=    0.000
 Gap=     0.302 Goal=   None    Shift=    0.000
 RMSDP=6.77D-08 MaxDP=5.66D-06 DE=-1.32D-09 OVMax= 7.99D-06

 Cycle  16  Pass 1  IDiag  1:
 RMSU=  4.30D-08    CP:  1.00D+00  1.04D+00  6.82D-01  2.06D+00  1.62D+00
                    CP:  1.14D+00  1.05D+00
 E= -636.277664699817     Delta-E=       -0.000000000240 Rises=F Damp=F
 DIIS: error= 9.35D-08 at cycle   8 NSaved=   8.
 NSaved= 8 IEnMin= 8 EnMin= -636.277664699817     IErMin= 8 ErrMin= 9.35D-08
 ErrMax= 9.35D-08  0.00D+00 EMaxC= 1.00D-01 BMatC= 4.26D-11 BMatP= 9.32D-10
 IDIUse=1 WtCom= 1.00D+00 WtEn= 0.00D+00
 Coeff-Com: -0.301D-03 0.191D-01 0.137D-01-0.402D-01-0.445D-01 0.145D-02
 Coeff-Com:  0.191D+00 0.859D+00
 Coeff:     -0.301D-03 0.191D-01 0.137D-01-0.402D-01-0.445D-01 0.145D-02
 Coeff:      0.191D+00 0.859D+00
 Gap=     0.282 Goal=   None    Shift=    0.000
 Gap=     0.302 Goal=   None    Shift=    0.000
 RMSDP=3.08D-08 MaxDP=3.20D-06 DE=-2.40D-10 OVMax= 2.39D-06

 Cycle  17  Pass 1  IDiag  1:
 RMSU=  1.86D-08    CP:  1.00D+00  1.04D+00  6.80D-01  2.05D+00  1.63D+00
                    CP:  1.18D+00  1.18D+00  1.15D+00
 E= -636.277664699831     Delta-E=       -0.000000000013 Rises=F Damp=F
 DIIS: error= 1.81D-08 at cycle   9 NSaved=   9.
 NSaved= 9 IEnMin= 9 EnMin= -636.277664699831     IErMin= 9 ErrMin= 1.81D-08
 ErrMax= 1.81D-08  0.00D+00 EMaxC= 1.00D-01 BMatC= 2.52D-12 BMatP= 4.26D-11
 IDIUse=1 WtCom= 1.00D+00 WtEn= 0.00D+00
 Coeff-Com: -0.823D-04 0.418D-02 0.294D-02-0.608D-02-0.964D-02-0.184D-01
 Coeff-Com: -0.140D-01 0.104D+00 0.937D+00
 Coeff:     -0.823D-04 0.418D-02 0.294D-02-0.608D-02-0.964D-02-0.184D-01
 Coeff:     -0.140D-01 0.104D+00 0.937D+00
 Gap=     0.282 Goal=   None    Shift=    0.000
 Gap=     0.302 Goal=   None    Shift=    0.000
 RMSDP=1.02D-08 MaxDP=9.94D-07 DE=-1.34D-11 OVMax= 7.96D-07

 Cycle  18  Pass 1  IDiag  1:
 RMSU=  3.79D-09    CP:  1.00D+00  1.04D+00  6.79D-01  2.05D+00  1.63D+00
                    CP:  1.19D+00  1.22D+00  1.27D+00  1.28D+00
 E= -636.277664699845     Delta-E=       -0.000000000014 Rises=F Damp=F
 DIIS: error= 1.17D-08 at cycle  10 NSaved=  10.
 NSaved=10 IEnMin=10 EnMin= -636.277664699845     IErMin=10 ErrMin= 1.17D-08
 ErrMax= 1.17D-08  0.00D+00 EMaxC= 1.00D-01 BMatC= 6.77D-13 BMatP= 2.52D-12
 IDIUse=1 WtCom= 1.00D+00 WtEn= 0.00D+00
 Coeff-Com:  0.277D-04-0.205D-02-0.151D-02 0.519D-02 0.495D-02-0.591D-02
 Coeff-Com: -0.366D-01-0.116D+00 0.267D+00 0.885D+00
 Coeff:      0.277D-04-0.205D-02-0.151D-02 0.519D-02 0.495D-02-0.591D-02
 Coeff:     -0.366D-01-0.116D+00 0.267D+00 0.885D+00
 Gap=     0.282 Goal=   None    Shift=    0.000
 Gap=     0.302 Goal=   None    Shift=    0.000
 RMSDP=5.33D-09 MaxDP=5.13D-07 DE=-1.39D-11 OVMax= 5.77D-07

 SCF Done:  E(UM062X) =  -636.277664700     A.U. after   18 cycles
            NFock= 18  Conv=0.53D-08     -V/T= 2.0060
 <Sx>= 0.0000 <Sy>= 0.0000 <Sz>= 0.5000 <S**2>= 0.7561 S= 0.5030
 <L.S>=  0.00000000000    
 KE= 6.325020706570D+02 PE=-3.530168840193D+03 EE= 1.236555748685D+03
 Annihilation of the first spin contaminant:
 S**2 before annihilation     0.7561,   after     0.7500
 Leave Link  502 at Thu Jan  9 08:05:58 2025, MaxMem=  4026531840 cpu:            9631.3 elap:             481.7
 (Enter /usr/local/intel/g16/l601.exe)
 Copying SCF densities to generalized density rwf, IOpCl= 1 IROHF=0.

 **********************************************************************

            Population analysis using the SCF Density.

 **********************************************************************

 Orbital symmetries:
 Alpha Orbitals:
       Occupied  (A) (A) (A) (A) (A) (A) (A) (A) (A) (A) (A) (A)
                 (A) (A) (A) (A) (A) (A) (A) (A) (A) (A) (A) (A)
                 (A) (A) (A) (A) (A) (A) (A) (A) (A) (A) (A) (A)
                 (A) (A) (A) (A) (A) (A) (A) (A) (A) (A) (A) (A)
                 (A) (A) (A) (A) (A) (A) (A)
       Virtual   (A) (A) (A) (A) (A) (A) (A) (A) (A) (A) (A) (A)
                 (A) (A) (A) (A) (A) (A) (A) (A) (A) (A) (A) (A)
                 (A) (A) (A) (A) (A) (A) (A) (A) (A) (A) (A) (A)
                 (A) (A) (A) (A) (A) (A) (A) (A) (A) (A) (A) (A)
                 (A) (A) (A) (A) (A) (A) (A) (A) (A) (A) (A) (A)
                 (A) (A) (A) (A) (A) (A) (A) (A) (A) (A) (A) (A)
                 (A) (A) (A) (A) (A) (A) (A) (A) (A) (A) (A) (A)
                 (A) (A) (A) (A) (A) (A) (A) (A) (A) (A) (A) (A)
                 (A) (A) (A) (A) (A) (A) (A) (A) (A) (A) (A) (A)
                 (A) (A) (A) (A) (A) (A) (A) (A) (A) (A) (A) (A)
                 (A) (A) (A) (A) (A) (A) (A) (A) (A) (A) (A) (A)
                 (A) (A) (A) (A) (A) (A) (A) (A) (A) (A) (A) (A)
                 (A) (A) (A) (A) (A) (A) (A) (A) (A) (A) (A) (A)
                 (A) (A) (A) (A) (A) (A) (A) (A) (A) (A) (A) (A)
                 (A) (A) (A) (A) (A) (A) (A) (A) (A) (A) (A) (A)
                 (A) (A) (A) (A) (A) (A) (A) (A) (A) (A) (A) (A)
                 (A) (A) (A) (A) (A) (A) (A) (A) (A) (A) (A) (A)
                 (A) (A) (A) (A) (A) (A) (A) (A) (A) (A) (A) (A)
                 (A) (A) (A) (A) (A) (A) (A) (A) (A) (A) (A) (A)
                 (A) (A) (A) (A) (A) (A) (A) (A) (A) (A) (A) (A)
                 (A) (A) (A) (A) (A) (A) (A) (A) (A) (A) (A) (A)
                 (A) (A) (A) (A) (A) (A) (A) (A) (A) (A) (A) (A)
                 (A) (A) (A) (A) (A) (A) (A) (A) (A) (A) (A) (A)
                 (A) (A) (A) (A) (A) (A) (A) (A) (A) (A) (A) (A)
                 (A) (A) (A) (A) (A) (A) (A) (A) (A) (A) (A) (A)
                 (A) (A) (A) (A) (A) (A) (A) (A) (A) (A) (A) (A)
                 (A) (A) (A) (A) (A) (A) (A) (A) (A) (A) (A) (A)
                 (A) (A) (A) (A) (A) (A) (A) (A) (A) (A) (A) (A)
                 (A) (A) (A) (A) (A) (A) (A) (A) (A) (A) (A) (A)
                 (A) (A) (A) (A) (A) (A) (A) (A) (A) (A) (A) (A)
                 (A) (A) (A) (A) (A) (A) (A) (A) (A) (A) (A) (A)
                 (A) (A) (A) (A) (A) (A) (A) (A) (A) (A) (A) (A)
                 (A) (A) (A) (A) (A) (A) (A) (A) (A) (A) (A) (A)
                 (A) (A) (A) (A) (A) (A) (A) (A) (A) (A) (A) (A)
                 (A) (A) (A) (A) (A) (A) (A) (A) (A) (A) (A) (A)
                 (A) (A) (A) (A) (A) (A) (A) (A) (A) (A) (A) (A)
                 (A) (A) (A) (A) (A) (A) (A) (A) (A) (A) (A) (A)
                 (A) (A) (A) (A) (A) (A) (A) (A) (A) (A) (A) (A)
                 (A) (A) (A) (A) (A) (A) (A) (A) (A) (A) (A) (A)
                 (A) (A) (A) (A) (A) (A) (A) (A) (A) (A) (A) (A)
                 (A) (A) (A) (A) (A) (A) (A) (A) (A) (A) (A) (A)
                 (A) (A) (A) (A) (A) (A) (A)
 Beta  Orbitals:
       Occupied  (A) (A) (A) (A) (A) (A) (A) (A) (A) (A) (A) (A)
                 (A) (A) (A) (A) (A) (A) (A) (A) (A) (A) (A) (A)
                 (A) (A) (A) (A) (A) (A) (A) (A) (A) (A) (A) (A)
                 (A) (A) (A) (A) (A) (A) (A) (A) (A) (A) (A) (A)
                 (A) (A) (A) (A) (A) (A)
       Virtual   (A) (A) (A) (A) (A) (A) (A) (A) (A) (A) (A) (A)
                 (A) (A) (A) (A) (A) (A) (A) (A) (A) (A) (A) (A)
                 (A) (A) (A) (A) (A) (A) (A) (A) (A) (A) (A) (A)
                 (A) (A) (A) (A) (A) (A) (A) (A) (A) (A) (A) (A)
                 (A) (A) (A) (A) (A) (A) (A) (A) (A) (A) (A) (A)
                 (A) (A) (A) (A) (A) (A) (A) (A) (A) (A) (A) (A)
                 (A) (A) (A) (A) (A) (A) (A) (A) (A) (A) (A) (A)
                 (A) (A) (A) (A) (A) (A) (A) (A) (A) (A) (A) (A)
                 (A) (A) (A) (A) (A) (A) (A) (A) (A) (A) (A) (A)
                 (A) (A) (A) (A) (A) (A) (A) (A) (A) (A) (A) (A)
                 (A) (A) (A) (A) (A) (A) (A) (A) (A) (A) (A) (A)
                 (A) (A) (A) (A) (A) (A) (A) (A) (A) (A) (A) (A)
                 (A) (A) (A) (A) (A) (A) (A) (A) (A) (A) (A) (A)
                 (A) (A) (A) (A) (A) (A) (A) (A) (A) (A) (A) (A)
                 (A) (A) (A) (A) (A) (A) (A) (A) (A) (A) (A) (A)
                 (A) (A) (A) (A) (A) (A) (A) (A) (A) (A) (A) (A)
                 (A) (A) (A) (A) (A) (A) (A) (A) (A) (A) (A) (A)
                 (A) (A) (A) (A) (A) (A) (A) (A) (A) (A) (A) (A)
                 (A) (A) (A) (A) (A) (A) (A) (A) (A) (A) (A) (A)
                 (A) (A) (A) (A) (A) (A) (A) (A) (A) (A) (A) (A)
                 (A) (A) (A) (A) (A) (A) (A) (A) (A) (A) (A) (A)
                 (A) (A) (A) (A) (A) (A) (A) (A) (A) (A) (A) (A)
                 (A) (A) (A) (A) (A) (A) (A) (A) (A) (A) (A) (A)
                 (A) (A) (A) (A) (A) (A) (A) (A) (A) (A) (A) (A)
                 (A) (A) (A) (A) (A) (A) (A) (A) (A) (A) (A) (A)
                 (A) (A) (A) (A) (A) (A) (A) (A) (A) (A) (A) (A)
                 (A) (A) (A) (A) (A) (A) (A) (A) (A) (A) (A) (A)
                 (A) (A) (A) (A) (A) (A) (A) (A) (A) (A) (A) (A)
                 (A) (A) (A) (A) (A) (A) (A) (A) (A) (A) (A) (A)
                 (A) (A) (A) (A) (A) (A) (A) (A) (A) (A) (A) (A)
                 (A) (A) (A) (A) (A) (A) (A) (A) (A) (A) (A) (A)
                 (A) (A) (A) (A) (A) (A) (A) (A) (A) (A) (A) (A)
                 (A) (A) (A) (A) (A) (A) (A) (A) (A) (A) (A) (A)
                 (A) (A) (A) (A) (A) (A) (A) (A) (A) (A) (A) (A)
                 (A) (A) (A) (A) (A) (A) (A) (A) (A) (A) (A) (A)
                 (A) (A) (A) (A) (A) (A) (A) (A) (A) (A) (A) (A)
                 (A) (A) (A) (A) (A) (A) (A) (A) (A) (A) (A) (A)
                 (A) (A) (A) (A) (A) (A) (A) (A) (A) (A) (A) (A)
                 (A) (A) (A) (A) (A) (A) (A) (A) (A) (A) (A) (A)
                 (A) (A) (A) (A) (A) (A) (A) (A) (A) (A) (A) (A)
                 (A) (A) (A) (A) (A) (A) (A) (A) (A) (A) (A) (A)
                 (A) (A) (A) (A) (A) (A) (A) (A)
 The electronic state is 2-A.
 Alpha  occ. eigenvalues --  -19.62988 -19.62166 -14.84155 -10.64127 -10.61075
 Alpha  occ. eigenvalues --  -10.60169 -10.55982 -10.55956 -10.55473 -10.55343
 Alpha  occ. eigenvalues --  -10.54647 -10.53483 -10.53263 -10.52826  -1.19735
 Alpha  occ. eigenvalues --   -1.15382  -0.96980  -0.93537  -0.90076  -0.83105
 Alpha  occ. eigenvalues --   -0.82650  -0.80677  -0.78668  -0.78551  -0.71792
 Alpha  occ. eigenvalues --   -0.68557  -0.63739  -0.59519  -0.58700  -0.57351
 Alpha  occ. eigenvalues --   -0.55566  -0.55228  -0.53103  -0.52436  -0.51536
 Alpha  occ. eigenvalues --   -0.50309  -0.49418  -0.48317  -0.47997  -0.47120
 Alpha  occ. eigenvalues --   -0.46868  -0.45374  -0.44790  -0.43873  -0.43340
 Alpha  occ. eigenvalues --   -0.43098  -0.42267  -0.41346  -0.40698  -0.40551
 Alpha  occ. eigenvalues --   -0.39439  -0.38674  -0.34054  -0.32622  -0.27507
 Alpha virt. eigenvalues --    0.00688   0.04939   0.06670   0.07113   0.08233
 Alpha virt. eigenvalues --    0.09333   0.09943   0.11163   0.11574   0.12275
 Alpha virt. eigenvalues --    0.12586   0.13086   0.13643   0.14286   0.14973
 Alpha virt. eigenvalues --    0.15435   0.16226   0.16443   0.17028   0.17631
 Alpha virt. eigenvalues --    0.18209   0.18521   0.19235   0.19897   0.20527
 Alpha virt. eigenvalues --    0.21090   0.21178   0.21978   0.22637   0.23136
 Alpha virt. eigenvalues --    0.23299   0.24028   0.25139   0.25338   0.25684
 Alpha virt. eigenvalues --    0.27241   0.27622   0.28728   0.30443   0.30831
 Alpha virt. eigenvalues --    0.31066   0.31939   0.34026   0.34852   0.35987
 Alpha virt. eigenvalues --    0.36248   0.36773   0.37875   0.38520   0.38918
 Alpha virt. eigenvalues --    0.39137   0.39792   0.40204   0.40798   0.41391
 Alpha virt. eigenvalues --    0.41831   0.42919   0.43271   0.44258   0.45323
 Alpha virt. eigenvalues --    0.45415   0.45978   0.46117   0.46864   0.47108
 Alpha virt. eigenvalues --    0.47315   0.47771   0.47995   0.48517   0.49133
 Alpha virt. eigenvalues --    0.49402   0.49825   0.50146   0.50320   0.50937
 Alpha virt. eigenvalues --    0.51144   0.51901   0.52387   0.52921   0.53821
 Alpha virt. eigenvalues --    0.54311   0.54656   0.55051   0.55454   0.56399
 Alpha virt. eigenvalues --    0.57400   0.58241   0.59295   0.60514   0.61537
 Alpha virt. eigenvalues --    0.61805   0.63055   0.64533   0.66607   0.67031
 Alpha virt. eigenvalues --    0.67787   0.69005   0.70653   0.70974   0.73605
 Alpha virt. eigenvalues --    0.74718   0.76018   0.76595   0.77181   0.77619
 Alpha virt. eigenvalues --    0.80138   0.80666   0.82359   0.83090   0.84651
 Alpha virt. eigenvalues --    0.85140   0.86682   0.88256   0.89125   0.90978
 Alpha virt. eigenvalues --    0.91242   0.92087   0.92273   0.93193   0.93955
 Alpha virt. eigenvalues --    0.94304   0.94490   0.96671   0.97512   0.98251
 Alpha virt. eigenvalues --    1.00772   1.00941   1.02032   1.04416   1.04571
 Alpha virt. eigenvalues --    1.06613   1.07354   1.07956   1.09070   1.09165
 Alpha virt. eigenvalues --    1.10747   1.10848   1.11805   1.13128   1.14577
 Alpha virt. eigenvalues --    1.15298   1.16279   1.16802   1.19201   1.19882
 Alpha virt. eigenvalues --    1.20909   1.22451   1.23553   1.24385   1.25777
 Alpha virt. eigenvalues --    1.26557   1.27136   1.29083   1.31785   1.33445
 Alpha virt. eigenvalues --    1.33573   1.34766   1.36510   1.38677   1.39522
 Alpha virt. eigenvalues --    1.39849   1.40531   1.42679   1.44713   1.47018
 Alpha virt. eigenvalues --    1.47769   1.49032   1.51376   1.53831   1.54493
 Alpha virt. eigenvalues --    1.55155   1.56691   1.56970   1.58415   1.58637
 Alpha virt. eigenvalues --    1.60070   1.60707   1.61790   1.63052   1.63265
 Alpha virt. eigenvalues --    1.64406   1.64934   1.65230   1.65593   1.66037
 Alpha virt. eigenvalues --    1.66419   1.67245   1.67728   1.69233   1.69839
 Alpha virt. eigenvalues --    1.70277   1.70863   1.71778   1.72655   1.73372
 Alpha virt. eigenvalues --    1.74526   1.75650   1.77166   1.77756   1.79480
 Alpha virt. eigenvalues --    1.80860   1.81905   1.83283   1.83837   1.85343
 Alpha virt. eigenvalues --    1.86190   1.87333   1.87941   1.90960   1.91661
 Alpha virt. eigenvalues --    1.93576   1.93842   1.96499   1.97802   1.98823
 Alpha virt. eigenvalues --    1.99013   2.00769   2.02595   2.03945   2.05124
 Alpha virt. eigenvalues --    2.06858   2.07776   2.08713   2.09440   2.11097
 Alpha virt. eigenvalues --    2.11773   2.13092   2.14173   2.15556   2.16542
 Alpha virt. eigenvalues --    2.17880   2.18676   2.20730   2.21387   2.21690
 Alpha virt. eigenvalues --    2.23180   2.23440   2.24581   2.27090   2.27772
 Alpha virt. eigenvalues --    2.28844   2.29857   2.31230   2.31465   2.32233
 Alpha virt. eigenvalues --    2.33498   2.34441   2.34654   2.35920   2.36763
 Alpha virt. eigenvalues --    2.37305   2.38111   2.38687   2.40881   2.41848
 Alpha virt. eigenvalues --    2.42293   2.43446   2.44932   2.45912   2.46706
 Alpha virt. eigenvalues --    2.47015   2.48217   2.49458   2.50932   2.51690
 Alpha virt. eigenvalues --    2.52916   2.54204   2.55719   2.56055   2.58043
 Alpha virt. eigenvalues --    2.58452   2.59433   2.59707   2.60018   2.61262
 Alpha virt. eigenvalues --    2.61587   2.62495   2.63050   2.63781   2.64613
 Alpha virt. eigenvalues --    2.64950   2.66168   2.66925   2.68224   2.69895
 Alpha virt. eigenvalues --    2.70317   2.70779   2.71279   2.72774   2.73038
 Alpha virt. eigenvalues --    2.73792   2.74338   2.76338   2.76892   2.77726
 Alpha virt. eigenvalues --    2.79621   2.80514   2.80989   2.82081   2.84845
 Alpha virt. eigenvalues --    2.85693   2.86013   2.87152   2.87815   2.88530
 Alpha virt. eigenvalues --    2.91014   2.92582   2.93252   2.96324   2.97447
 Alpha virt. eigenvalues --    2.98022   3.00623   3.01756   3.03473   3.03993
 Alpha virt. eigenvalues --    3.05497   3.06898   3.08232   3.08592   3.10790
 Alpha virt. eigenvalues --    3.11922   3.12264   3.13783   3.15188   3.16249
 Alpha virt. eigenvalues --    3.17404   3.18896   3.19298   3.19830   3.20364
 Alpha virt. eigenvalues --    3.21959   3.22578   3.22815   3.23391   3.23958
 Alpha virt. eigenvalues --    3.25481   3.25994   3.26408   3.27868   3.29072
 Alpha virt. eigenvalues --    3.30010   3.30796   3.31702   3.33050   3.33514
 Alpha virt. eigenvalues --    3.35169   3.35552   3.35781   3.37501   3.37931
 Alpha virt. eigenvalues --    3.38293   3.38989   3.39998   3.40747   3.41276
 Alpha virt. eigenvalues --    3.41815   3.42850   3.43934   3.44556   3.45700
 Alpha virt. eigenvalues --    3.45927   3.48764   3.49126   3.50203   3.51974
 Alpha virt. eigenvalues --    3.53167   3.53699   3.54794   3.57044   3.57836
 Alpha virt. eigenvalues --    3.58049   3.60742   3.62421   3.63028   3.65085
 Alpha virt. eigenvalues --    3.65878   3.66137   3.67222   3.69573   3.70665
 Alpha virt. eigenvalues --    3.73477   3.74097   3.74267   3.75971   3.79040
 Alpha virt. eigenvalues --    3.80238   3.81746   3.85077   3.85833   3.86453
 Alpha virt. eigenvalues --    3.88189   3.90346   3.91879   3.93444   3.94003
 Alpha virt. eigenvalues --    3.95914   3.97485   3.98178   3.99434   4.00787
 Alpha virt. eigenvalues --    4.02850   4.03488   4.04316   4.06239   4.08585
 Alpha virt. eigenvalues --    4.09335   4.11594   4.12594   4.14089   4.16494
 Alpha virt. eigenvalues --    4.18598   4.19270   4.20401   4.24175   4.28039
 Alpha virt. eigenvalues --    4.28897   4.28910   4.30413   4.32221   4.33808
 Alpha virt. eigenvalues --    4.35025   4.36677   4.38080   4.39172   4.39809
 Alpha virt. eigenvalues --    4.40945   4.44457   4.44998   4.45595   4.47505
 Alpha virt. eigenvalues --    4.48436   4.51284   4.52908   4.55320   4.57127
 Alpha virt. eigenvalues --    4.59198   4.61711   4.65985   4.67310   4.70006
 Alpha virt. eigenvalues --    4.73921   4.78131   4.78718   4.79976   4.81820
 Alpha virt. eigenvalues --    4.85045   4.87517   4.91196   4.93075   4.97462
 Alpha virt. eigenvalues --    4.99798   5.03412   5.03795   5.08710   5.12011
 Alpha virt. eigenvalues --    5.19789   5.22188   5.23784   5.25391   5.26898
 Alpha virt. eigenvalues --    5.34453   5.44935   5.46743   5.53849   5.55634
 Alpha virt. eigenvalues --    5.58637   5.67982   5.74232   5.80845   6.04517
 Alpha virt. eigenvalues --    6.09972   6.23604   6.27556   6.38534   6.38846
 Alpha virt. eigenvalues --    6.39963   6.45518   6.57817   6.80913   6.83359
 Alpha virt. eigenvalues --    6.94545   6.98539   7.00493   7.04203   7.64115
 Alpha virt. eigenvalues --   22.50121  22.50810  22.52973  22.56977  22.59049
 Alpha virt. eigenvalues --   22.65748  22.69930  22.70594  22.76065  22.85673
 Alpha virt. eigenvalues --   23.16642  32.98114  44.09486  44.14887
  Beta  occ. eigenvalues --  -19.62165 -19.61888 -14.83358 -10.64127 -10.61104
  Beta  occ. eigenvalues --  -10.60200 -10.55967 -10.55957 -10.55474 -10.55343
  Beta  occ. eigenvalues --  -10.54611 -10.53455 -10.53262 -10.52810  -1.16674
  Beta  occ. eigenvalues --   -1.15376  -0.95772  -0.93406  -0.89625  -0.82908
  Beta  occ. eigenvalues --   -0.80980  -0.80462  -0.78544  -0.78436  -0.71752
  Beta  occ. eigenvalues --   -0.68085  -0.63459  -0.58775  -0.58444  -0.56803
  Beta  occ. eigenvalues --   -0.55264  -0.53665  -0.52515  -0.51641  -0.51191
  Beta  occ. eigenvalues --   -0.49930  -0.48955  -0.48201  -0.47675  -0.46716
  Beta  occ. eigenvalues --   -0.46108  -0.45240  -0.43710  -0.43518  -0.43136
  Beta  occ. eigenvalues --   -0.42289  -0.42004  -0.41054  -0.40517  -0.39589
  Beta  occ. eigenvalues --   -0.38575  -0.36369  -0.32620  -0.32280
  Beta virt. eigenvalues --   -0.02071   0.00725   0.04932   0.06710   0.07166
  Beta virt. eigenvalues --    0.08317   0.09412   0.09956   0.11148   0.11611
  Beta virt. eigenvalues --    0.12279   0.12600   0.13105   0.13695   0.14324
  Beta virt. eigenvalues --    0.15003   0.15612   0.16225   0.16539   0.17062
  Beta virt. eigenvalues --    0.17662   0.18246   0.18562   0.19260   0.20021
  Beta virt. eigenvalues --    0.20553   0.21118   0.21389   0.22163   0.22714
  Beta virt. eigenvalues --    0.23173   0.23493   0.24152   0.25378   0.25507
  Beta virt. eigenvalues --    0.25731   0.27428   0.27869   0.29167   0.30481
  Beta virt. eigenvalues --    0.30941   0.31322   0.32175   0.34078   0.34959
  Beta virt. eigenvalues --    0.36047   0.36461   0.36818   0.37962   0.38517
  Beta virt. eigenvalues --    0.38953   0.39336   0.39874   0.40342   0.40931
  Beta virt. eigenvalues --    0.41465   0.41888   0.42901   0.43433   0.44323
  Beta virt. eigenvalues --    0.45421   0.45490   0.46071   0.46128   0.46883
  Beta virt. eigenvalues --    0.47121   0.47396   0.47777   0.48021   0.48517
  Beta virt. eigenvalues --    0.49195   0.49440   0.49891   0.50248   0.50343
  Beta virt. eigenvalues --    0.50936   0.51227   0.51929   0.52431   0.53039
  Beta virt. eigenvalues --    0.53858   0.54352   0.54793   0.55115   0.55547
  Beta virt. eigenvalues --    0.56515   0.57473   0.58255   0.59418   0.60625
  Beta virt. eigenvalues --    0.61693   0.61868   0.63330   0.64858   0.66820
  Beta virt. eigenvalues --    0.67205   0.67916   0.69236   0.70792   0.71059
  Beta virt. eigenvalues --    0.73647   0.74823   0.76098   0.76648   0.77261
  Beta virt. eigenvalues --    0.77699   0.80196   0.80755   0.82519   0.83247
  Beta virt. eigenvalues --    0.84731   0.85133   0.86726   0.88268   0.89207
  Beta virt. eigenvalues --    0.91039   0.91297   0.92161   0.92376   0.93241
  Beta virt. eigenvalues --    0.94088   0.94358   0.94623   0.96736   0.97616
  Beta virt. eigenvalues --    0.98303   1.00849   1.00984   1.02264   1.04493
  Beta virt. eigenvalues --    1.04707   1.06618   1.07389   1.08071   1.09137
  Beta virt. eigenvalues --    1.09287   1.10788   1.10910   1.11920   1.13347
  Beta virt. eigenvalues --    1.14650   1.15339   1.16340   1.16883   1.19283
  Beta virt. eigenvalues --    1.20105   1.21009   1.22500   1.23734   1.24529
  Beta virt. eigenvalues --    1.25864   1.26640   1.27271   1.29159   1.31872
  Beta virt. eigenvalues --    1.33462   1.33765   1.34864   1.36704   1.38809
  Beta virt. eigenvalues --    1.39577   1.39979   1.40645   1.42726   1.44761
  Beta virt. eigenvalues --    1.47142   1.48194   1.49084   1.51429   1.53922
  Beta virt. eigenvalues --    1.54573   1.55189   1.56896   1.57227   1.58492
  Beta virt. eigenvalues --    1.58718   1.60211   1.60928   1.61859   1.63120
  Beta virt. eigenvalues --    1.63455   1.64433   1.64983   1.65284   1.65670
  Beta virt. eigenvalues --    1.66143   1.66492   1.67287   1.67846   1.69323
  Beta virt. eigenvalues --    1.69905   1.70352   1.70950   1.71944   1.72822
  Beta virt. eigenvalues --    1.73610   1.74639   1.75743   1.77381   1.77855
  Beta virt. eigenvalues --    1.79642   1.81031   1.82126   1.83362   1.83902
  Beta virt. eigenvalues --    1.85422   1.86338   1.87475   1.88118   1.90989
  Beta virt. eigenvalues --    1.91778   1.93657   1.94324   1.96651   1.97990
  Beta virt. eigenvalues --    1.98980   1.99075   2.01035   2.02757   2.03983
  Beta virt. eigenvalues --    2.05190   2.07001   2.07830   2.08781   2.09528
  Beta virt. eigenvalues --    2.11249   2.11805   2.13172   2.14321   2.15630
  Beta virt. eigenvalues --    2.16865   2.17937   2.18722   2.21034   2.21636
[...]
 20,0.00000695,-0.00001285,-0.00002079,-0.00002686,0.00002557,0.0000029
 8,-0.00005612,-0.00002661,0.00004185,-0.00002333,-0.00006689,0.0000068
 1,0.00009678,-0.00008331,0.00016813,-0.00000087,0.00001540,-0.00000214
 ,0.00000045,-0.00000993,0.00001066,-0.00000304,-0.00002072,-0.00000403
 ,0.00003386,-0.00001424,0.00004043,-0.00000578,0.00001737,0.00001338,-
 0.00003135,0.00001634,0.00000265,-0.10482602,-0.27364353,-0.00616016,-
 0.00133003,-0.00184529,-0.00077096,0.10543722,0.29453897,0.00005477,0.
 00038632,0.00010689,0.00023409,-0.00030852,0.00003674,0.00017400,-0.00
 014770,-0.00034194,0.00006001,-0.00013978,0.00011323,0.01730923,0.0231
 2647,-0.00156761,0.00015182,-0.00047620,-0.00437554,0.00082305,0.00049
 588,0.00030874,0.00010741,0.00017939,-0.00036763,-0.00004697,0.0000295
 0,0.00013686,-0.00031164,-0.00023490,-0.00032662,0.00004867,-0.0000180
 1,0.00000195,-0.00004242,-0.00003993,-0.00003734,0.00045589,0.00068793
 ,0.00151650,-0.00041981,0.00015126,-0.00038326,0.00026367,-0.00016723,
 -0.00023761,-0.00001046,0.00004667,0.00003125,0.00005078,-0.00008327,-
 0.00001455,-0.00005953,-0.00018616,0.00009974,0.00000138,-0.00015224,0
 .00004014,0.00001393,-0.00004438,0.00024230,-0.00001383,0.00003681,-0.
 00000865,-0.00000668,-0.00003591,0.00002877,0.00001987,0.00000419,-0.0
 0001519,0.00005553,0.00009797,0.00035581,-0.00002163,0.00006448,0.0001
 7778,-0.00001599,0.00000960,0.00005541,-0.00686152,-0.00716881,-0.0475
 4741,-0.01223179,-0.02740205,-0.00060338,-0.00076709,0.00977920,0.0509
 2660,-0.00006950,0.00013933,0.00007023,-0.00039735,-0.00021992,-0.0000
 0638,0.00115243,0.00102474,-0.00032254,0.00886550,-0.01357860,0.013834
 82,-0.01448906,0.01210901,-0.00053937,-0.00077753,0.00016769,0.0004225
 9,-0.00025323,-0.00016013,0.00006944,-0.00321404,0.00010499,-0.0017546
 1,-0.00016115,-0.00010281,-0.00012665,-0.00010870,0.00002191,0.0000834
 5,-0.00101451,-0.00307206,0.00084027,-0.00128410,-0.00299712,0.0012098
 1,-0.00109454,-0.00065578,0.00123843,0.00143588,-0.00039133,-0.0014812
 5,0.00000441,-0.00008189,0.00010910,-0.00000678,-0.00001498,0.00005768
 ,0.00005291,-0.00004999,-0.00004414,0.00018358,0.00043891,-0.00005266,
 -0.00018885,-0.00051865,0.00039634,-0.00172814,-0.00222738,-0.00062977
 ,-0.00001315,0.00012603,0.00006861,0.00011601,0.00005721,-0.00007937,-
 0.00007940,0.00004629,-0.00008970,-0.00007136,0.00004058,0.00009904,0.
 00000417,0.00000151,0.00009660,0.00005568,-0.00001440,-0.00001221,-0.1
 2606425,0.05446571,-0.00598240,-0.01288678,0.01268440,0.00090905,0.001
 92200,-0.00359148,0.00074506,0.52751201,-0.00015214,0.00022493,0.00000
 153,-0.00005027,-0.00006381,-0.00026919,0.00070132,0.00017959,0.000930
 34,-0.00628705,0.00058365,0.02142820,0.00044967,0.00137814,-0.00500746
 ,-0.00028541,-0.00025523,0.00031569,-0.00006006,-0.00003970,0.00003156
 ,-0.00151069,-0.00027418,-0.00130854,-0.00024474,-0.00007096,-0.000326
 64,0.00009355,-0.00006988,0.00013098,-0.00186888,-0.00349969,0.0007932
 1,0.00097179,0.00068110,-0.00061933,0.00043651,0.00123786,0.00052294,0
 .00000773,0.00050143,0.00070927,-0.00000481,-0.00001437,0.00003293,0.0
 0001660,-0.00001732,-0.00004554,-0.00003849,0.00004007,0.00000217,0.00
 001555,-0.00013052,-0.00002820,0.00014624,-0.00014810,0.00005225,-0.00
 140134,-0.00128213,-0.00019123,0.00002918,-0.00002185,0.00003512,0.000
 11246,0.00016196,-0.00016622,-0.00003774,-0.00013509,-0.00012847,-0.00
 003193,-0.00007643,-0.00002843,0.00002397,0.00002328,-0.00003505,-0.00
 003963,0.00008058,0.00000851,0.04142393,-0.11318106,0.01109730,0.00155
 241,-0.00303597,-0.00065378,0.02710549,-0.02134967,0.00238293,0.091253
 09,0.50887247,0.00011882,-0.00011913,0.00000481,0.00023976,0.00016469,
 0.00004176,0.00009816,0.00055038,0.00075462,-0.00432114,0.00524047,0.0
 0240986,0.01347082,-0.01777289,0.00208031,0.00000291,-0.00044141,-0.00
 032671,0.00031535,0.00012022,0.00001249,0.00102424,0.00071898,0.000534
 01,0.00009455,0.00000573,0.00009685,-0.00029862,-0.00026800,-0.0002354
 4,-0.00075796,-0.00078047,0.00103557,0.00116406,0.00098456,-0.00069430
 ,0.00336721,0.00036327,-0.00302487,-0.00048247,-0.00019451,0.00145176,
 0.00001063,0.00011436,-0.00011733,-0.00001923,-0.00000717,0.00000156,-
 0.00008209,0.00011404,0.00003402,0.00013898,-0.00031377,-0.00012888,0.
 00036134,0.00018951,-0.00012658,-0.00050570,-0.00005059,-0.00003376,0.
 00003331,-0.00010937,-0.00001109,-0.00001726,-0.00002536,-0.00008579,0
 .00003175,0.00001451,-0.00005414,-0.00005552,0.00029315,0.00022527,-0.
 00005775,-0.00000266,0.00020252,0.00016102,-0.00011339,-0.00013542,0.0
 0422783,0.00030627,-0.07106217,-0.01663580,0.01927439,0.00171077,-0.00
 010773,-0.00063515,0.00012038,0.00615586,0.04874520,0.53252286,0.00105
 208,-0.00060248,-0.00011502,-0.00035455,-0.00030885,0.00094272,-0.0114
 9051,-0.00978600,0.00269883,-0.11386064,-0.04554281,0.02044821,-0.0021
 1348,0.00242439,-0.00217777,-0.00119201,0.00147983,-0.00092041,0.00006
 097,-0.00024597,0.00017421,0.00173556,0.00070594,0.00036598,0.00030063
 ,0.00133111,-0.00007133,-0.00016463,-0.00037010,-0.00014333,-0.0043756
 3,-0.01033602,0.00165548,0.01006599,0.01362573,-0.00376354,0.00030077,
 -0.00054050,0.00054106,-0.00138703,0.00303094,0.00153883,-0.00002353,0
 .00008006,-0.00000138,-0.00003231,0.00013364,0.00008342,0.00011830,-0.
 00017707,-0.00004512,-0.00000851,0.00000548,-0.00034598,0.00010617,0.0
 0005338,0.00073518,0.00006343,0.00001136,-0.00010179,0.00044659,-0.000
 85243,-0.00020820,-0.00017784,-0.00004783,0.00015107,0.00095229,0.0000
 2921,0.00015301,-0.00001373,0.00022265,0.00004015,-0.00006976,0.000057
 04,0.00006761,0.00015908,-0.00022104,0.00002022,-0.00436895,0.01551828
 ,-0.02537970,-0.00312445,0.00368038,0.00001645,-0.00108836,0.00106346,
 -0.00003635,-0.08425489,-0.01125970,0.01720434,0.59556837,0.00273065,-
 0.00217983,-0.00024852,0.00016756,0.00182791,0.00183585,-0.00352795,0.
 00443162,-0.01229794,-0.04126563,-0.13495625,0.03157079,0.00255969,-0.
 00014247,0.00056433,0.00079175,0.00389472,-0.00100862,-0.00039532,-0.0
 0084560,0.00002955,0.00063911,0.00087391,-0.00090455,0.00147100,0.0000
 8751,0.00162434,-0.00063725,-0.00105339,-0.00000484,0.00146225,-0.0048
 2404,0.00168428,-0.01546754,-0.02882091,0.00778990,-0.00086530,-0.0002
 2730,0.00083439,0.00365183,-0.00146915,-0.00137903,-0.00029813,0.00012
 363,0.00017604,0.00004067,0.00020046,-0.00000546,0.00021033,-0.0003276
 8,-0.00010686,-0.00005910,0.00012953,-0.00035174,0.00006634,-0.0003327
 8,0.00105606,0.00074488,-0.00038739,0.00076497,-0.00003430,0.00008419,
 0.00001653,-0.00001565,-0.00031205,0.00022459,0.00059978,0.00137737,0.
 00033394,0.00006430,0.00025582,0.00004910,-0.00028415,0.00013401,-0.00
 017980,0.00028869,-0.00030306,0.00016601,0.00566778,-0.01682958,0.0168
 0167,-0.00020588,-0.00084657,-0.00049985,0.00104293,-0.00044782,0.0002
 0523,-0.01578095,-0.12843763,0.05248086,0.15808746,0.42000326,-0.00055
 176,0.00075049,-0.00004057,0.00051257,-0.00037921,-0.00051150,-0.00313
 559,-0.01692227,0.00593400,0.01759143,0.02820079,-0.09636621,0.0004737
 8,-0.00019725,0.00493440,-0.00040415,-0.00078787,-0.00122977,0.0007275
 3,0.00058299,0.00021182,0.00048721,-0.00045904,0.00184526,-0.00309739,
 0.00001147,-0.00231950,-0.00009626,0.00005596,0.00030538,0.01870245,0.
 02953556,-0.00887577,-0.00427497,-0.00526243,0.00081043,0.00064198,0.0
 0012392,-0.00145452,0.00222795,-0.00100847,-0.00160474,0.00016597,-0.0
 0002460,-0.00025836,0.00001893,0.00002172,-0.00018633,-0.00008999,0.00
 012301,0.00005729,0.00013124,-0.00056597,-0.00028970,0.00032409,0.0004
 2266,-0.00057732,-0.00069724,0.00051145,-0.00087386,-0.00010443,0.0002
 8852,-0.00004239,-0.00011035,-0.00013708,0.00046126,-0.00064544,-0.001
 13424,0.00087518,-0.00011181,-0.00025922,-0.00039875,0.00011443,-0.000
 01230,-0.00027549,-0.00019834,0.00010805,0.00002254,-0.01653292,0.0070
 2995,0.00452570,0.00267232,-0.00281029,0.00007657,0.00348616,-0.003136
 47,0.00070997,0.02573924,0.05052431,-0.15685137,0.28831088,-0.01139292
 ,0.73096728,-0.00109232,0.00058093,0.00017831,0.00049074,-0.00016152,-
 0.00061896,0.00308884,-0.00784435,0.00377436,-0.03123735,-0.02801869,-
 0.03218919,-0.00006720,0.00021362,0.00117784,0.00011524,-0.00086983,0.
 00014666,-0.00002556,0.00021059,-0.00011996,-0.00069150,-0.00008010,0.
 00052902,-0.00292851,-0.00021276,-0.00187186,-0.00003499,0.00015748,0.
 00004926,0.00022073,0.00393512,-0.00225258,-0.00231940,-0.00235676,-0.
 00130130,-0.00008397,0.00019059,-0.00016821,-0.00153350,0.00030764,-0.
 00065567,0.00002194,-0.00007361,-0.00002303,0.00004060,-0.00007687,-0.
 00002367,-0.00006209,0.00013304,0.00003526,0.00003569,0.00004468,0.000
 07018,-0.00014546,-0.00004477,-0.00040263,0.00019431,0.00011034,-0.000
 19692,-0.00003323,0.00031838,-0.00003156,0.00005420,0.00008767,0.00005
 458,-0.00059535,-0.00107169,0.00021122,0.00003419,-0.00008041,0.000050
 70,0.00001557,-0.00006594,0.00000231,-0.00004829,0.00012268,-0.0000299
 2,0.00199006,-0.00152545,0.00292661,0.00033677,-0.00039123,0.00023545,
 -0.00043942,0.00033859,-0.00019698,0.00545389,-0.00363796,-0.02605506,
 -0.37831903,-0.10171509,-0.32903775,0.40493823,-0.00143233,0.00119177,
 0.00017317,0.00010101,-0.00088197,-0.00084848,0.00137553,-0.00520160,0
 .00568544,-0.04085666,-0.00653448,-0.02692407,0.00018634,-0.00025743,-
 0.00100231,-0.00042715,-0.00195184,0.00069524,0.00010811,0.00042446,-0
 .00007600,-0.00043165,-0.00024227,0.00066409,-0.00195113,0.00022819,-0
 .00157353,0.00039885,0.00059267,-0.00002642,-0.00059673,0.00143344,-0.
 00202471,-0.00018992,0.00321382,-0.00093303,0.00015912,0.00013505,-0.0
 0002822,0.00029884,-0.00082429,0.00075480,0.00014788,-0.00008201,-0.00
 005227,-0.00003085,-0.00011554,0.00004577,-0.00011566,0.00016271,0.000
 06169,0.00005902,-0.00012620,0.00005983,0.00000240,0.00010185,-0.00057
 926,-0.00018762,0.00027841,-0.00045356,0.00004931,0.00010138,0.0000441
 9,0.00009381,0.00010090,0.00001406,-0.00036155,-0.00090967,0.00006137,
 -0.00002082,-0.00010949,0.00002293,0.00015053,-0.00007007,0.00013734,-
 0.00014738,0.00016191,-0.00010417,0.00140138,0.00055211,-0.00201116,0.
 00000537,0.00028240,0.00016386,-0.00045400,0.00035736,-0.00041210,0.00
 612779,0.02407545,0.01930457,-0.10317809,-0.11349072,-0.08865361,0.136
 31980,0.09925067,-0.00059402,0.00009069,0.00012904,-0.00005459,-0.0000
 9676,-0.00003195,0.00092982,-0.00105136,0.00344385,-0.01680083,-0.0133
 7230,0.00482197,0.00126055,0.00007279,-0.00202705,0.00020489,-0.000342
 54,0.00077205,-0.00038776,-0.00014691,-0.00023908,-0.00001830,0.000350
 69,0.00000105,-0.00108971,-0.00013632,-0.00060389,0.00008701,0.0001258
 1,-0.00016446,-0.00175732,-0.00067306,0.00223081,-0.00005599,0.0015946
 1,0.00008923,-0.00018537,-0.00001066,0.00062988,-0.00072314,-0.0003242
 9,0.00104958,-0.00005210,-0.00002679,0.00011774,-0.00000133,-0.0000464
 0,0.00011977,0.00000906,0.00001319,0.00000764,-0.00000464,0.00024278,0
 .00006656,-0.00019207,-0.00025633,0.00023488,0.00055077,-0.00010171,0.
 00028401,0.00000939,0.00007402,-0.00002462,-0.00004386,-0.00000644,0.0
 0000790,-0.00013895,-0.00039578,-0.00003927,0.00006496,0.00012716,0.00
 026373,-0.00003249,-0.00003315,0.00019626,0.00007807,0.00000289,-0.000
 05790,0.00412727,-0.00218894,-0.00682109,-0.00191523,0.00237970,0.0003
 8197,-0.00121767,0.00126066,-0.00050263,-0.04227948,0.00343695,-0.0450
 3078,-0.32683265,-0.08463605,-0.45764277,0.38834749,0.09403720,0.50113
 458,0.00004974,-0.00020237,-0.00006038,-0.00011157,0.00000114,-0.00018
 220,-0.00010203,0.00043910,0.00070521,0.00038317,-0.00010343,0.0000744
 9,-0.00165510,0.00272224,-0.00011518,0.00019336,0.00052334,0.00032011,
 -0.00017556,-0.00013019,-0.00001882,-0.00182701,-0.00161096,-0.0003285
 2,0.00006961,-0.00011558,-0.00036998,-0.00006308,-0.00004934,0.0000826
 6,-0.00005399,0.00010516,-0.00008111,-0.00001966,0.00004469,0.00004465
 ,-0.00084386,-0.00007067,0.00054309,0.00005578,-0.00004884,-0.00024584
 ,-0.00005089,-0.00000010,0.00005629,0.00001427,0.00001254,-0.00002494,
 0.00004256,-0.00006107,-0.00002415,-0.00004646,-0.00023740,-0.00010030
 ,0.00005017,0.00017932,-0.00009523,-0.00374920,-0.00079983,-0.00063814
 ,-0.00000017,-0.00002827,0.00002594,0.00003404,0.00012245,-0.00007056,
 -0.00003920,-0.00001604,0.00002403,-0.00004923,0.00003692,-0.00007945,
 -0.00002029,-0.00000259,-0.00005072,0.00004245,-0.00004068,0.00000130,
 -0.00032035,0.01477061,0.01929463,0.00154619,-0.00092145,0.00013401,-0
 .00162350,0.00178330,0.00020333,-0.04459168,-0.01515621,-0.01016470,-0
 .00224775,0.00154899,-0.00184533,0.00110384,0.00120507,-0.00058064,0.0
 5386594,0.00004390,0.00011997,0.00003485,0.00006041,-0.00003805,-0.000
 07728,0.00018088,-0.00018288,-0.00002877,0.00054290,-0.00078876,-0.001
 23875,0.00038611,-0.00194477,0.00036782,-0.00013101,-0.00009835,-0.000
 20642,0.00011792,0.00007442,0.00004685,-0.00332260,-0.00048363,-0.0008
 1134,-0.00008724,-0.00002533,-0.00004307,-0.00000288,-0.00000060,-0.00
 002949,0.00016724,0.00030549,-0.00029117,-0.00010020,-0.00025493,0.000
 07477,0.00044603,0.00019021,-0.00046838,0.00006851,0.00001622,-0.00002
 284,0.00003001,0.00000553,-0.00003464,-0.00001386,-0.00000664,0.000013
 17,-0.00003031,0.00002205,0.00000952,-0.00032948,-0.00051018,-0.000176
 78,-0.00016148,-0.00050832,0.00020300,-0.00115648,-0.00065395,-0.00011
 250,-0.00000820,0.00000776,0.00000721,0.00001807,0.00000552,0.00001203
 ,0.00000160,-0.00001211,0.00002765,0.00000778,0.00000064,0.00001014,0.
 00000806,0.00000988,0.00002481,-0.00001990,0.00000482,-0.00001686,-0.0
 0020641,-0.01346012,-0.01334554,-0.00058173,0.00176015,-0.00039946,0.0
 0255060,-0.00148082,-0.00031603,-0.01377350,-0.15187034,-0.13194135,0.
 00070368,0.01674275,0.01278487,0.00312543,-0.00373138,0.00322998,0.011
 69275,0.16623277,-0.00005932,0.00012009,0.00006106,0.00001116,-0.00006
 234,0.00000984,0.00056127,0.00044900,-0.00054064,-0.00056634,0.0017537
 5,0.00195392,0.00012614,0.00002626,0.00012062,-0.00006331,-0.00031170,
 -0.00006985,0.00003301,0.00006127,-0.00000366,-0.00173815,-0.00049010,
 -0.00075051,0.00007869,0.00001298,0.00000985,0.00005800,0.00007080,-0.
 00002509,-0.00041958,-0.00040862,0.00032541,0.00033392,0.00057767,-0.0
 0034111,0.00011273,0.00000354,0.00008743,-0.00014664,0.00006806,0.0002
 0864,0.00002156,-0.00000821,-0.00001648,-0.00000322,-0.00000888,0.0000
 0868,-0.00001406,0.00001562,0.00001041,-0.00010300,0.00032616,0.000136
 06,-0.00039605,-0.00032081,0.00032735,-0.00113408,-0.00094962,0.000654
 84,0.00000648,0.00001355,-0.00001028,0.00000057,0.00000923,0.00003690,
 0.00002946,0.00002559,-0.00001056,-0.00001661,-0.00003586,0.00003431,0
 .00001798,-0.00000324,0.00001744,-0.00002726,0.00003549,0.00000662,-0.
 00073410,0.00277684,0.00249120,-0.00029013,0.00005988,0.00133957,-0.00
 016063,0.00078548,-0.00001156,-0.00531278,-0.13329140,-0.21526195,-0.0
 0398970,-0.02461787,-0.01952682,-0.00170743,0.00596486,-0.00555334,0.0
 1589118,0.14521702,0.23131709,-0.00002051,-0.00009206,-0.00000356,0.00
 000236,0.00005829,-0.00002027,0.00006596,0.00015395,0.00002091,0.00081
 701,0.00032038,-0.00027252,-0.00126455,0.00179110,-0.00166418,0.000035
 13,0.00028393,0.00018834,-0.00015198,-0.00012515,-0.00000955,0.0000318
 4,0.00015339,-0.00010538,0.00000083,-0.00000297,-0.00001324,-0.0000358
 1,-0.00006824,0.00002334,0.00009653,-0.00001317,0.00000317,-0.00004890
 ,-0.00016471,0.00009044,-0.00037467,0.00008748,0.00043645,0.00009314,-
 0.00011756,0.00002235,-0.00003653,-0.00000894,0.00005272,0.00001265,0.
 00000350,0.00000119,0.00001927,-0.00001964,-0.00001529,0.00001243,-0.0
 0006227,-0.00000441,0.00002756,-0.00003550,0.00000400,-0.00001656,0.00
 000050,0.00009366,0.00000037,-0.00000403,0.00000288,0.00000013,0.00000
 041,0.00000461,-0.00001017,0.00000301,-0.00000600,0.00000705,0.0000246
 0,0.00004367,-0.00002749,0.00000338,0.00001358,0.00003341,-0.00000517,
 0.00000701,-0.01876084,-0.00825612,0.00177556,-0.00143505,0.00107007,0
 .00031175,0.00140482,-0.00020831,0.00027021,-0.25400948,-0.12227243,0.
 01134009,-0.00226266,-0.00128373,-0.00139442,0.00152233,0.00219137,-0.
 00071113,0.00013946,-0.00022662,-0.00039976,0.27413294,-0.00011118,0.0
 0021027,0.00004446,0.00003478,-0.00010708,-0.00003677,0.00066536,0.000
 18343,-0.00013479,0.00051194,0.00057133,0.00363558,0.00176904,-0.00137
 330,0.00148536,0.00003490,-0.00043006,-0.00030098,0.00019166,0.0001902
 0,0.00000930,-0.00052150,0.00018992,-0.00033461,-0.00011793,0.00003729
 ,0.00000332,0.00007402,0.00013554,-0.00005424,-0.00049841,-0.00093792,
 0.00034832,0.00007289,-0.00010105,-0.00002929,0.00024520,-0.00011770,-
 0.00037447,-0.00020275,0.00001166,-0.00009568,0.00006004,-0.00001093,-
 0.00007030,-0.00001184,-0.00001589,-0.00000312,-0.00003034,0.00003933,
 0.00002149,-0.00001207,0.00019507,0.00003111,-0.00011641,-0.00015219,0
 .00012041,0.00002251,-0.00049385,0.00002056,0.00000561,0.00003968,0.00
 000013,0.00002551,0.00000431,-0.00000299,-0.00001725,-0.00003109,-0.00
 004364,-0.00000161,-0.00006170,-0.00002608,0.00004257,-0.00001270,-0.0
 0000901,-0.00005839,0.00003768,-0.00000228,0.02173507,0.00680782,-0.00
 190448,0.00165917,-0.00083717,0.00040516,0.00164374,0.00176018,-0.0003
 5062,-0.12157824,-0.11406662,0.00379008,-0.01877515,-0.01393249,0.0020
 6752,0.00203045,0.00188443,-0.00319335,-0.01559262,-0.00944702,0.00213
 554,0.12682123,0.12983064,0.00005147,-0.00004393,0.00001935,0.00002536
 ,0.00002968,0.00014700,-0.00046154,-0.00034239,-0.00053140,-0.00179770
 ,0.00153419,-0.00385331,0.00037631,-0.00052687,-0.00030889,-0.00003405
 ,0.00004129,-0.00005062,-0.00000489,-0.00002462,-0.00000798,-0.0007926
 2,0.00006047,-0.00052748,0.00011008,0.00003748,0.00017036,-0.00002977,
 -0.00003110,-0.00002878,0.00045391,0.00100242,-0.00024796,0.00022097,0
 .00052614,-0.00034087,0.00012877,-0.00006417,-0.00006745,-0.00001316,0
 .00005715,0.00003594,-0.00000118,0.00001003,0.00000070,0.00000057,0.00
 000781,0.00001052,0.00000362,0.00000285,0.00000133,-0.00000620,0.00022
 287,0.00000865,-0.00014918,-0.00029651,0.00025130,0.00003096,-0.000600
 69,0.00023893,0.00000024,-0.00001857,-0.00003051,-0.00004020,-0.000050
 54,0.00007381,0.00004974,0.00004729,0.00002877,0.00001170,-0.00000356,
 0.00004164,-0.00001457,0.00000669,0.00001119,0.00000244,0.00000468,0.0
 0001412,-0.00012866,-0.00044148,-0.00032839,-0.00035962,0.00032213,-0.
 00019540,0.00013239,0.00002976,0.00133187,0.00656765,0.00091811,-0.050
 05884,0.02898463,0.01942559,-0.00241132,-0.00090654,-0.00218753,0.0027
 5631,-0.02232472,-0.01250301,0.00296463,-0.01008621,-0.00715165,0.0508
 8278\\0.00000337,-0.00000050,0.00000590,-0.00000256,-0.00000660,-0.000
 00259,0.00001470,-0.00000346,0.00000226,-0.00001630,0.00000387,-0.0000
 1028,-0.00000141,-0.00000604,0.00000745,-0.00000306,0.00002578,-0.0000
 0362,0.00000631,-0.00000119,-0.00000040,-0.00000712,0.00000173,0.00000
 539,0.00000329,-0.00000522,0.00000282,-0.00000191,0.00000252,0.0000026
 4,0.00000567,-0.00000032,-0.00000133,0.00000272,-0.00000389,-0.0000024
 7,-0.00000012,0.00000005,0.00000175,-0.00000183,0.00000179,-0.00000151
 ,0.00000231,0.00000223,-0.00000033,0.00000337,0.00000268,-0.00000039,0
 .00000242,0.00000185,0.00000006,-0.00000121,-0.00000168,0.00000119,-0.
 00000048,-0.00000031,0.00000208,-0.00000157,-0.00000311,-0.00000194,-0
 .00000302,-0.00000017,0.00000162,-0.00000104,0.00000297,0.00000073,-0.
 00000058,0.00000112,0.00000278,-0.00000244,-0.00000090,0.00000280,0.00
 000147,0.00000215,0.00000314,0.00000074,0.00000020,-0.00000050,0.00000
 689,-0.00000626,-0.00001012,-0.00000046,-0.00000075,-0.00000021,0.0000
 0023,-0.00000291,-0.00000549,-0.00001428,0.00001514,0.00001126,0.00000
 480,-0.00000436,-0.00000159,-0.00000337,-0.00000381,-0.00000754,0.0000
 0416,-0.00000881,0.00000060,0.00000029,-0.00000379,-0.00000417\\\@
 The archive entry for this job was punched.


 NATURE REVEALS EVERY SECRET ONCE.
                    - RALPH WALDO EMERSON
 Job cpu time:       1 days 12 hours 20 minutes 32.6 seconds.
 Elapsed time:       0 days  1 hours 49 minutes  2.4 seconds.
 File lengths (MBytes):  RWF=   1641 Int=      0 D2E=      0 Chk=     36 Scr=      1
 Normal termination of Gaussian 16 at Thu Jan  9 11:34:48 2025.
