 Entering Gaussian System, Link 0=g16
 Input=gjfs/data_set_3-catalyst-Mix_14_opt.gjf
 Output=gjfs/data_set_3-catalyst-Mix_14_opt.log
 Initial command:
 /usr/local/intel/g16/l1.exe "/scr/Gau-53576.inp" -scrdir="/scr/"
 Entering Link 1 = /usr/local/intel/g16/l1.exe PID=     53578.
  
 Copyright (c) 1988-2019, Gaussian, Inc.  All Rights Reserved.
  
 This is part of the Gaussian(R) 16 program.  It is based on
 the Gaussian(R) 09 system (copyright 2009, Gaussian, Inc.),
 the Gaussian(R) 03 system (copyright 2003, Gaussian, Inc.),
 the Gaussian(R) 98 system (copyright 1998, Gaussian, Inc.),
 the Gaussian(R) 94 system (copyright 1995, Gaussian, Inc.),
 the Gaussian 92(TM) system (copyright 1992, Gaussian, Inc.),
 the Gaussian 90(TM) system (copyright 1990, Gaussian, Inc.),
 the Gaussian 88(TM) system (copyright 1988, Gaussian, Inc.),
 the Gaussian 86(TM) system (copyright 1986, Carnegie Mellon
 University), and the Gaussian 82(TM) system (copyright 1983,
 Carnegie Mellon University). Gaussian is a federally registered
 trademark of Gaussian, Inc.
  
 This software contains proprietary and confidential information,
 including trade secrets, belonging to Gaussian, Inc.
  
 This software is provided under written license and may be
 used, copied, transmitted, or stored only in accord with that
 written license.
  
 The following legend is applicable only to US Government
 contracts under FAR:
  
                    RESTRICTED RIGHTS LEGEND
  
 Use, reproduction and disclosure by the US Government is
 subject to restrictions as set forth in subparagraphs (a)
 and (c) of the Commercial Computer Software - Restricted
 Rights clause in FAR 52.227-19.
  
 Gaussian, Inc.
 340 Quinnipiac St., Bldg. 40, Wallingford CT 06492
  
  
 ---------------------------------------------------------------
 Warning -- This program may not be used in any manner that
 competes with the business of Gaussian, Inc. or will provide
 assistance to any competitor of Gaussian, Inc.  The licensee
 of this program is prohibited from giving any competitor of
 Gaussian, Inc. access to this program.  By using this program,
 the user acknowledges that Gaussian, Inc. is engaged in the
 business of creating and licensing software in the field of
 computational chemistry and represents and warrants to the
 licensee that it is not a competitor of Gaussian, Inc. and that
 it will not use this program in any manner prohibited above.
 ---------------------------------------------------------------
  

 Cite this work as:
 Gaussian 16, Revision C.01,
 M. J. Frisch, G. W. Trucks, H. B. Schlegel, G. E. Scuseria, 
 M. A. Robb, J. R. Cheeseman, G. Scalmani, V. Barone, 
 G. A. Petersson, H. Nakatsuji, X. Li, M. Caricato, A. V. Marenich, 
 J. Bloino, B. G. Janesko, R. Gomperts, B. Mennucci, H. P. Hratchian, 
 J. V. Ortiz, A. F. Izmaylov, J. L. Sonnenberg, D. Williams-Young, 
 F. Ding, F. Lipparini, F. Egidi, J. Goings, B. Peng, A. Petrone, 
 T. Henderson, D. Ranasinghe, V. G. Zakrzewski, J. Gao, N. Rega, 
 G. Zheng, W. Liang, M. Hada, M. Ehara, K. Toyota, R. Fukuda, 
 J. Hasegawa, M. Ishida, T. Nakajima, Y. Honda, O. Kitao, H. Nakai, 
 T. Vreven, K. Throssell, J. A. Montgomery, Jr., J. E. Peralta, 
 F. Ogliaro, M. J. Bearpark, J. J. Heyd, E. N. Brothers, K. N. Kudin, 
 V. N. Staroverov, T. A. Keith, R. Kobayashi, J. Normand, 
 K. Raghavachari, A. P. Rendell, J. C. Burant, S. S. Iyengar, 
 J. Tomasi, M. Cossi, J. M. Millam, M. Klene, C. Adamo, R. Cammi, 
 J. W. Ochterski, R. L. Martin, K. Morokuma, O. Farkas, 
 J. B. Foresman, and D. J. Fox, Gaussian, Inc., Wallingford CT, 2019.
 
 ******************************************
 Gaussian 16:  ES64L-G16RevC.01  3-Jul-2019
                 9-Jan-2025 
 ******************************************
 %nprocshared=20
 Will use up to   20 processors via shared memory.
 %mem=30GB
 %chk=outputs/data_set_3-catalyst-Mix_14_opt.chk
 ----------------------------------
 #p M062X/DEF2TZVP opt freq pop=NBO
 ----------------------------------
 1/18=20,19=15,26=3,38=1/1,3;
 2/9=110,12=2,17=6,18=5,40=1/2;
 3/5=44,7=101,11=2,25=1,30=1,71=1,74=-55/1,2,3;
 4//1;
 5/5=2,38=5/2;
 6/7=2,8=2,9=2,10=2,28=1,40=1/1,7;
 7//1,2,3,16;
 1/18=20,19=15,26=3/3(2);
 2/9=110/2;
 99//99;
 2/9=110/2;
 3/5=44,7=101,11=2,25=1,30=1,71=1,74=-55/1,2,3;
 4/5=5,16=3,69=1/1;
 5/5=2,38=5/2;
 7//1,2,3,16;
 1/18=20,19=15,26=3/3(-5);
 2/9=110/2;
 6/7=2,8=2,9=2,10=2,19=2,28=1,40=1/1,7;
 99/9=1/99;
 Leave Link    1 at Thu Jan  9 12:05:52 2025, MaxMem=  4026531840 cpu:               2.5 elap:               0.1
 (Enter /usr/local/intel/g16/l101.exe)
 ------------------------------
 data_set_3-catalyst-Mix_14_opt
 ------------------------------
 Symbolic Z-matrix:
 Charge =  0 Multiplicity = 2
 O                    -1.03032   0.14345  -1.88077 
 N                    -1.05428   0.19557  -0.55686 
 C                    -1.28443  -1.10933   0.16784 
 C                    -0.49198   1.47826   0.00568 
 C                    -1.69622  -2.1615   -0.88431 
 C                    -2.44322  -0.99076   1.18412 
 C                    -0.88435   1.72036   1.47393 
 C                    -1.1175    2.62144  -0.83195 
 H                    -1.89603  -3.10631  -0.36652 
 H                    -0.91634  -2.3228   -1.62944 
 H                    -2.59846  -1.84922  -1.41561 
 H                    -2.72176  -1.99438   1.5236 
 H                    -3.31771  -0.53715   0.70667 
 H                    -2.18479  -0.40612   2.06787 
 H                    -0.55326   0.93744   2.1582 
 H                    -1.96822   1.83069   1.57172 
 H                    -0.41729   2.65646   1.79885 
 H                    -2.20857   2.53426  -0.8389 
 H                    -0.76696   2.58356  -1.86424 
 H                    -0.84358   3.58733  -0.39333 
 C                     0.02669  -1.57439   0.8629 
 C                     1.97044   0.80003   0.79738 
 C                     1.05771   1.54521  -0.19946 
 H                    -0.14981  -2.5927    1.22793 
 H                     0.20578  -0.96669   1.7571 
 H                     1.52303   0.78525   1.79762 
 H                     2.89961   1.37724   0.91292 
 H                     1.27737   1.21754  -1.22251 
 H                     1.31185   2.61173  -0.15517 
 C                     1.25284  -1.5395   -0.07791 
 C                     2.38612  -0.63334   0.40757 
 O                     3.33325  -0.61214  -0.70543 
 H                     0.96362  -1.18396  -1.07245 
 H                     1.66566  -2.54228  -0.22108 
 H                     2.87319  -1.08866   1.28534 
 H                     4.12257  -0.0895   -0.47567 
 
 ITRead=  0  0  0  0  0  0  0  0  0  0  0  0  0  0  0  0  0  0  0  0
 ITRead=  0  0  0  0  0  0  0  0  0  0  0  0  0  0  0  0
 MicOpt= -1 -1 -1 -1 -1 -1 -1 -1 -1 -1 -1 -1 -1 -1 -1 -1 -1 -1 -1 -1
 MicOpt= -1 -1 -1 -1 -1 -1 -1 -1 -1 -1 -1 -1 -1 -1 -1 -1
 NAtoms=     36 NQM=       36 NQMF=       0 NMMI=      0 NMMIF=      0
                NMic=       0 NMicF=      0.
                    Isotopes and Nuclear Properties:
 (Nuclear quadrupole moments (NQMom) in fm**2, nuclear magnetic moments (NMagM)
  in nuclear magnetons)

  Atom         1           2           3           4           5           6           7           8           9          10
 IAtWgt=          16          14          12          12          12          12          12          12           1           1
 AtmWgt=  15.9949146  14.0030740  12.0000000  12.0000000  12.0000000  12.0000000  12.0000000  12.0000000   1.0078250   1.0078250
 NucSpn=           0           2           0           0           0           0           0           0           1           1
 AtZEff=  -0.0000000  -0.0000000  -0.0000000  -0.0000000  -0.0000000  -0.0000000  -0.0000000  -0.0000000  -0.0000000  -0.0000000
 NQMom=    0.0000000   2.0440000   0.0000000   0.0000000   0.0000000   0.0000000   0.0000000   0.0000000   0.0000000   0.0000000
 NMagM=    0.0000000   0.4037610   0.0000000   0.0000000   0.0000000   0.0000000   0.0000000   0.0000000   2.7928460   2.7928460
 AtZNuc=   8.0000000   7.0000000   6.0000000   6.0000000   6.0000000   6.0000000   6.0000000   6.0000000   1.0000000   1.0000000

  Atom        11          12          13          14          15          16          17          18          19          20
 IAtWgt=           1           1           1           1           1           1           1           1           1           1
 AtmWgt=   1.0078250   1.0078250   1.0078250   1.0078250   1.0078250   1.0078250   1.0078250   1.0078250   1.0078250   1.0078250
 NucSpn=           1           1           1           1           1           1           1           1           1           1
 AtZEff=  -0.0000000  -0.0000000  -0.0000000  -0.0000000  -0.0000000  -0.0000000  -0.0000000  -0.0000000  -0.0000000  -0.0000000
 NQMom=    0.0000000   0.0000000   0.0000000   0.0000000   0.0000000   0.0000000   0.0000000   0.0000000   0.0000000   0.0000000
 NMagM=    2.7928460   2.7928460   2.7928460   2.7928460   2.7928460   2.7928460   2.7928460   2.7928460   2.7928460   2.7928460
 AtZNuc=   1.0000000   1.0000000   1.0000000   1.0000000   1.0000000   1.0000000   1.0000000   1.0000000   1.0000000   1.0000000

  Atom        21          22          23          24          25          26          27          28          29          30
 IAtWgt=          12          12          12           1           1           1           1           1           1          12
 AtmWgt=  12.0000000  12.0000000  12.0000000   1.0078250   1.0078250   1.0078250   1.0078250   1.0078250   1.0078250  12.0000000
 NucSpn=           0           0           0           1           1           1           1           1           1           0
 AtZEff=  -0.0000000  -0.0000000  -0.0000000  -0.0000000  -0.0000000  -0.0000000  -0.0000000  -0.0000000  -0.0000000  -0.0000000
 NQMom=    0.0000000   0.0000000   0.0000000   0.0000000   0.0000000   0.0000000   0.0000000   0.0000000   0.0000000   0.0000000
 NMagM=    0.0000000   0.0000000   0.0000000   2.7928460   2.7928460   2.7928460   2.7928460   2.7928460   2.7928460   0.0000000
 AtZNuc=   6.0000000   6.0000000   6.0000000   1.0000000   1.0000000   1.0000000   1.0000000   1.0000000   1.0000000   6.0000000

  Atom        31          32          33          34          35          36
 IAtWgt=          12          16           1           1           1           1
 AtmWgt=  12.0000000  15.9949146   1.0078250   1.0078250   1.0078250   1.0078250
 NucSpn=           0           0           1           1           1           1
 AtZEff=  -0.0000000  -0.0000000  -0.0000000  -0.0000000  -0.0000000  -0.0000000
 NQMom=    0.0000000   0.0000000   0.0000000   0.0000000   0.0000000   0.0000000
 NMagM=    0.0000000   0.0000000   2.7928460   2.7928460   2.7928460   2.7928460
 AtZNuc=   6.0000000   8.0000000   1.0000000   1.0000000   1.0000000   1.0000000
 Leave Link  101 at Thu Jan  9 12:05:53 2025, MaxMem=  4026531840 cpu:              23.7 elap:               1.2
 (Enter /usr/local/intel/g16/l103.exe)

 GradGradGradGradGradGradGradGradGradGradGradGradGradGradGradGradGradGrad
 Berny optimization.
 Initialization pass.
                           ----------------------------
                           !    Initial Parameters    !
                           ! (Angstroms and Degrees)  !
 --------------------------                            --------------------------
 ! Name  Definition              Value          Derivative Info.                !
 --------------------------------------------------------------------------------
 ! R1    R(1,2)                  1.3252         estimate D2E/DX2                !
 ! R2    R(2,3)                  1.5103         estimate D2E/DX2                !
 ! R3    R(2,4)                  1.5093         estimate D2E/DX2                !
 ! R4    R(3,5)                  1.5439         estimate D2E/DX2                !
 ! R5    R(3,6)                  1.5459         estimate D2E/DX2                !
 ! R6    R(3,21)                 1.5551         estimate D2E/DX2                !
 ! R7    R(4,7)                  1.5389         estimate D2E/DX2                !
 ! R8    R(4,8)                  1.5491         estimate D2E/DX2                !
 ! R9    R(4,23)                 1.5646         estimate D2E/DX2                !
 ! R10   R(5,9)                  1.0958         estimate D2E/DX2                !
 ! R11   R(5,10)                 1.0906         estimate D2E/DX2                !
 ! R12   R(5,11)                 1.0926         estimate D2E/DX2                !
 ! R13   R(6,12)                 1.0955         estimate D2E/DX2                !
 ! R14   R(6,13)                 1.0947         estimate D2E/DX2                !
 ! R15   R(6,14)                 1.0907         estimate D2E/DX2                !
 ! R16   R(7,15)                 1.0912         estimate D2E/DX2                !
 ! R17   R(7,16)                 1.0938         estimate D2E/DX2                !
 ! R18   R(7,17)                 1.0954         estimate D2E/DX2                !
 ! R19   R(8,18)                 1.0946         estimate D2E/DX2                !
 ! R20   R(8,19)                 1.0908         estimate D2E/DX2                !
 ! R21   R(8,20)                 1.0956         estimate D2E/DX2                !
 ! R22   R(21,24)                1.0961         estimate D2E/DX2                !
 ! R23   R(21,25)                1.0959         estimate D2E/DX2                !
 ! R24   R(21,30)                1.5459         estimate D2E/DX2                !
 ! R25   R(22,23)                1.5434         estimate D2E/DX2                !
 ! R26   R(22,26)                1.0958         estimate D2E/DX2                !
 ! R27   R(22,27)                1.0999         estimate D2E/DX2                !
 ! R28   R(22,31)                1.5425         estimate D2E/DX2                !
 ! R29   R(23,28)                1.0965         estimate D2E/DX2                !
 ! R30   R(23,29)                1.0973         estimate D2E/DX2                !
 ! R31   R(30,31)                1.5301         estimate D2E/DX2                !
 ! R32   R(30,33)                1.0951         estimate D2E/DX2                !
 ! R33   R(30,34)                1.0938         estimate D2E/DX2                !
 ! R34   R(31,32)                1.4616         estimate D2E/DX2                !
 ! R35   R(31,35)                1.1023         estimate D2E/DX2                !
 ! R36   R(32,36)                0.9742         estimate D2E/DX2                !
 ! A1    A(1,2,3)              116.6264         estimate D2E/DX2                !
 ! A2    A(1,2,4)              113.5196         estimate D2E/DX2                !
 ! A3    A(3,2,4)              127.7505         estimate D2E/DX2                !
 ! A4    A(2,3,5)              107.6051         estimate D2E/DX2                !
 ! A5    A(2,3,6)              111.3105         estimate D2E/DX2                !
 ! A6    A(2,3,21)             110.1433         estimate D2E/DX2                !
 ! A7    A(5,3,6)              107.4794         estimate D2E/DX2                !
 ! A8    A(5,3,21)             109.0055         estimate D2E/DX2                !
 ! A9    A(6,3,21)             111.1676         estimate D2E/DX2                !
 ! A10   A(2,4,7)              113.2231         estimate D2E/DX2                !
 ! A11   A(2,4,8)              105.9733         estimate D2E/DX2                !
 ! A12   A(2,4,23)             110.8855         estimate D2E/DX2                !
 ! A13   A(7,4,8)              107.2672         estimate D2E/DX2                !
 ! A14   A(7,4,23)             111.7702         estimate D2E/DX2                !
 ! A15   A(8,4,23)             107.3054         estimate D2E/DX2                !
 ! A16   A(3,5,9)              108.3134         estimate D2E/DX2                !
 ! A17   A(3,5,10)             112.0659         estimate D2E/DX2                !
 ! A18   A(3,5,11)             110.9066         estimate D2E/DX2                !
 ! A19   A(9,5,10)             109.009          estimate D2E/DX2                !
 ! A20   A(9,5,11)             109.0041         estimate D2E/DX2                !
 ! A21   A(10,5,11)            107.4895         estimate D2E/DX2                !
 ! A22   A(3,6,12)             108.9083         estimate D2E/DX2                !
 ! A23   A(3,6,13)             110.112          estimate D2E/DX2                !
 ! A24   A(3,6,14)             113.3399         estimate D2E/DX2                !
 ! A25   A(12,6,13)            108.1591         estimate D2E/DX2                !
 ! A26   A(12,6,14)            107.4719         estimate D2E/DX2                !
 ! A27   A(13,6,14)            108.6956         estimate D2E/DX2                !
 ! A28   A(4,7,15)             114.0807         estimate D2E/DX2                !
 ! A29   A(4,7,16)             110.7199         estimate D2E/DX2                !
 ! A30   A(4,7,17)             107.9819         estimate D2E/DX2                !
 ! A31   A(15,7,16)            108.4779         estimate D2E/DX2                !
 ! A32   A(15,7,17)            107.322          estimate D2E/DX2                !
 ! A33   A(16,7,17)            108.0454         estimate D2E/DX2                !
 ! A34   A(4,8,18)             110.3135         estimate D2E/DX2                !
 ! A35   A(4,8,19)             110.8738         estimate D2E/DX2                !
 ! A36   A(4,8,20)             109.4606         estimate D2E/DX2                !
 ! A37   A(18,8,19)            108.1526         estimate D2E/DX2                !
 ! A38   A(18,8,20)            108.7824         estimate D2E/DX2                !
 ! A39   A(19,8,20)            109.2153         estimate D2E/DX2                !
 ! A40   A(3,21,24)            106.9132         estimate D2E/DX2                !
 ! A41   A(3,21,25)            109.6722         estimate D2E/DX2                !
 ! A42   A(3,21,30)            112.952          estimate D2E/DX2                !
 ! A43   A(24,21,25)           105.6502         estimate D2E/DX2                !
 ! A44   A(24,21,30)           110.5712         estimate D2E/DX2                !
 ! A45   A(25,21,30)           110.7596         estimate D2E/DX2                !
 ! A46   A(23,22,26)           110.7688         estimate D2E/DX2                !
 ! A47   A(23,22,27)           108.3034         estimate D2E/DX2                !
 ! A48   A(23,22,31)           116.4113         estimate D2E/DX2                !
 ! A49   A(26,22,27)           104.8375         estimate D2E/DX2                !
 ! A50   A(26,22,31)           109.1567         estimate D2E/DX2                !
 ! A51   A(27,22,31)           106.6507         estimate D2E/DX2                !
 ! A52   A(4,23,22)            118.7106         estimate D2E/DX2                !
 ! A53   A(4,23,28)            107.9368         estimate D2E/DX2                !
 ! A54   A(4,23,29)            105.4082         estimate D2E/DX2                !
 ! A55   A(22,23,28)           109.8689         estimate D2E/DX2                !
 ! A56   A(22,23,29)           107.833          estimate D2E/DX2                !
 ! A57   A(28,23,29)           106.3633         estimate D2E/DX2                !
 ! A58   A(21,30,31)           114.0631         estimate D2E/DX2                !
 ! A59   A(21,30,33)           110.5217         estimate D2E/DX2                !
 ! A60   A(21,30,34)           110.9966         estimate D2E/DX2                !
 ! A61   A(31,30,33)           106.9479         estimate D2E/DX2                !
 ! A62   A(31,30,34)           107.7534         estimate D2E/DX2                !
 ! A63   A(33,30,34)           106.1678         estimate D2E/DX2                !
 ! A64   A(22,31,30)           115.5256         estimate D2E/DX2                !
 ! A65   A(22,31,32)           110.707          estimate D2E/DX2                !
 ! A66   A(22,31,35)           107.5592         estimate D2E/DX2                !
 ! A67   A(30,31,32)           104.2962         estimate D2E/DX2                !
 ! A68   A(30,31,35)           109.5918         estimate D2E/DX2                !
 ! A69   A(32,31,35)           109.0286         estimate D2E/DX2                !
 ! A70   A(31,32,36)           110.6856         estimate D2E/DX2                !
 ! D1    D(1,2,3,5)            -10.2862         estimate D2E/DX2                !
 ! D2    D(1,2,3,6)           -127.8046         estimate D2E/DX2                !
 ! D3    D(1,2,3,21)           108.4198         estimate D2E/DX2                !
 ! D4    D(4,2,3,5)           -172.6059         estimate D2E/DX2                !
 ! D5    D(4,2,3,6)             69.8757         estimate D2E/DX2                !
 ! D6    D(4,2,3,21)           -53.8999         estimate D2E/DX2                !
 ! D7    D(1,2,4,7)            163.1873         estimate D2E/DX2                !
 ! D8    D(1,2,4,8)             45.8782         estimate D2E/DX2                !
 ! D9    D(1,2,4,23)           -70.2507         estimate D2E/DX2                !
 ! D10   D(3,2,4,7)            -34.0359         estimate D2E/DX2                !
 ! D11   D(3,2,4,8)           -151.345          estimate D2E/DX2                !
 ! D12   D(3,2,4,23)            92.5261         estimate D2E/DX2                !
 ! D13   D(2,3,5,9)           -178.295          estimate D2E/DX2                !
 ! D14   D(2,3,5,10)            61.4149         estimate D2E/DX2                !
 ! D15   D(2,3,5,11)           -58.7165         estimate D2E/DX2                !
 ! D16   D(6,3,5,9)            -58.3174         estimate D2E/DX2                !
 ! D17   D(6,3,5,10)          -178.6075         estimate D2E/DX2                !
 ! D18   D(6,3,5,11)            61.2611         estimate D2E/DX2                !
 ! D19   D(21,3,5,9)            62.2712         estimate D2E/DX2                !
 ! D20   D(21,3,5,10)          -58.0189         estimate D2E/DX2                !
 ! D21   D(21,3,5,11)         -178.1504         estimate D2E/DX2                !
 ! D22   D(2,3,6,12)           167.7363         estimate D2E/DX2                !
 ! D23   D(2,3,6,13)            49.295          estimate D2E/DX2                !
 ! D24   D(2,3,6,14)           -72.696          estimate D2E/DX2                !
 ! D25   D(5,3,6,12)            50.1417         estimate D2E/DX2                !
 ! D26   D(5,3,6,13)           -68.2996         estimate D2E/DX2                !
 ! D27   D(5,3,6,14)           169.7094         estimate D2E/DX2                !
 ! D28   D(21,3,6,12)          -69.0719         estimate D2E/DX2                !
 ! D29   D(21,3,6,13)          172.4868         estimate D2E/DX2                !
 ! D30   D(21,3,6,14)           50.4958         estimate D2E/DX2                !
 ! D31   D(2,3,21,24)         -170.8856         estimate D2E/DX2                !
 ! D32   D(2,3,21,25)           75.0261         estimate D2E/DX2                !
 ! D33   D(2,3,21,30)          -49.042          estimate D2E/DX2                !
 ! D34   D(5,3,21,24)          -53.0409         estimate D2E/DX2                !
 ! D35   D(5,3,21,25)         -167.1292         estimate D2E/DX2                !
 ! D36   D(5,3,21,30)           68.8027         estimate D2E/DX2                !
 ! D37   D(6,3,21,24)           65.2559         estimate D2E/DX2                !
 ! D38   D(6,3,21,25)          -48.8324         estimate D2E/DX2                !
 ! D39   D(6,3,21,30)         -172.9005         estimate D2E/DX2                !
 ! D40   D(2,4,7,15)            59.654          estimate D2E/DX2                !
 ! D41   D(2,4,7,16)           -63.044          estimate D2E/DX2                !
 ! D42   D(2,4,7,17)           178.8584         estimate D2E/DX2                !
 ! D43   D(8,4,7,15)           176.2027         estimate D2E/DX2                !
 ! D44   D(8,4,7,16)            53.5048         estimate D2E/DX2                !
 ! D45   D(8,4,7,17)           -64.5928         estimate D2E/DX2                !
 ! D46   D(23,4,7,15)          -66.4382         estimate D2E/DX2                !
 ! D47   D(23,4,7,16)          170.8638         estimate D2E/DX2                !
 ! D48   D(23,4,7,17)           52.7663         estimate D2E/DX2                !
 ! D49   D(2,4,8,18)            53.4469         estimate D2E/DX2                !
 ! D50   D(2,4,8,19)           -66.3356         estimate D2E/DX2                !
 ! D51   D(2,4,8,20)           173.1121         estimate D2E/DX2                !
 ! D52   D(7,4,8,18)           -67.7835         estimate D2E/DX2                !
 ! D53   D(7,4,8,19)           172.434          estimate D2E/DX2                !
 ! D54   D(7,4,8,20)            51.8817         estimate D2E/DX2                !
 ! D55   D(23,4,8,18)          171.9746         estimate D2E/DX2                !
 ! D56   D(23,4,8,19)           52.1921         estimate D2E/DX2                !
 ! D57   D(23,4,8,20)          -68.3601         estimate D2E/DX2                !
 ! D58   D(2,4,23,22)          -81.5416         estimate D2E/DX2                !
 ! D59   D(2,4,23,28)           44.2335         estimate D2E/DX2                !
 ! D60   D(2,4,23,29)          157.5851         estimate D2E/DX2                !
 ! D61   D(7,4,23,22)           45.82           estimate D2E/DX2                !
 ! D62   D(7,4,23,28)          171.5952         estimate D2E/DX2                !
 ! D63   D(7,4,23,29)          -75.0533         estimate D2E/DX2                !
 ! D64   D(8,4,23,22)          163.1561         estimate D2E/DX2                !
 ! D65   D(8,4,23,28)          -71.0687         estimate D2E/DX2                !
 ! D66   D(8,4,23,29)           42.2828         estimate D2E/DX2                !
 ! D67   D(3,21,30,31)         120.7705         estimate D2E/DX2                !
 ! D68   D(3,21,30,33)           0.2379         estimate D2E/DX2                !
 ! D69   D(3,21,30,34)        -117.2865         estimate D2E/DX2                !
 ! D70   D(24,21,30,31)       -119.4683         estimate D2E/DX2                !
 ! D71   D(24,21,30,33)        119.9992         estimate D2E/DX2                !
 ! D72   D(24,21,30,34)          2.4748         estimate D2E/DX2                !
 ! D73   D(25,21,30,31)         -2.6988         estimate D2E/DX2                !
 ! D74   D(25,21,30,33)       -123.2314         estimate D2E/DX2                !
 ! D75   D(25,21,30,34)        119.2443         estimate D2E/DX2                !
 ! D76   D(26,22,23,4)         -32.0643         estimate D2E/DX2                !
 ! D77   D(26,22,23,28)       -156.9052         estimate D2E/DX2                !
 ! D78   D(26,22,23,29)         87.5679         estimate D2E/DX2                !
 ! D79   D(27,22,23,4)        -146.5154         estimate D2E/DX2                !
 ! D80   D(27,22,23,28)         88.6437         estimate D2E/DX2                !
 ! D81   D(27,22,23,29)        -26.8832         estimate D2E/DX2                !
 ! D82   D(31,22,23,4)          93.401          estimate D2E/DX2                !
 ! D83   D(31,22,23,28)        -31.4399         estimate D2E/DX2                !
 ! D84   D(31,22,23,29)       -146.9668         estimate D2E/DX2                !
 ! D85   D(23,22,31,30)        -47.243          estimate D2E/DX2                !
 ! D86   D(23,22,31,32)         70.9895         estimate D2E/DX2                !
 ! D87   D(23,22,31,35)       -169.9845         estimate D2E/DX2                !
 ! D88   D(26,22,31,30)         79.0322         estimate D2E/DX2                !
 ! D89   D(26,22,31,32)       -162.7353         estimate D2E/DX2                !
 ! D90   D(26,22,31,35)        -43.7093         estimate D2E/DX2                !
 ! D91   D(27,22,31,30)       -168.2091         estimate D2E/DX2                !
 ! D92   D(27,22,31,32)        -49.9766         estimate D2E/DX2                !
 ! D93   D(27,22,31,35)         69.0494         estimate D2E/DX2                !
 ! D94   D(21,30,31,22)        -50.6655         estimate D2E/DX2                !
 ! D95   D(21,30,31,32)       -172.404          estimate D2E/DX2                !
 ! D96   D(21,30,31,35)         70.9912         estimate D2E/DX2                !
 ! D97   D(33,30,31,22)         71.8438         estimate D2E/DX2                !
 ! D98   D(33,30,31,32)        -49.8947         estimate D2E/DX2                !
 ! D99   D(33,30,31,35)       -166.4995         estimate D2E/DX2                !
 ! D100  D(34,30,31,22)       -174.3768         estimate D2E/DX2                !
 ! D101  D(34,30,31,32)         63.8847         estimate D2E/DX2                !
 ! D102  D(34,30,31,35)        -52.7201         estimate D2E/DX2                !
 ! D103  D(22,31,32,36)         57.9247         estimate D2E/DX2                !
 ! D104  D(30,31,32,36)       -177.205          estimate D2E/DX2                !
 ! D105  D(35,31,32,36)        -60.2095         estimate D2E/DX2                !
 --------------------------------------------------------------------------------
 Trust Radius=3.00D-01 FncErr=1.00D-07 GrdErr=1.00D-06 EigMax=2.50D+02 EigMin=1.00D-04
 Number of steps in this run=    216 maximum allowed number of steps=    216.
 GradGradGradGradGradGradGradGradGradGradGradGradGradGradGradGradGradGrad

 Leave Link  103 at Thu Jan  9 12:05:54 2025, MaxMem=  4026531840 cpu:               0.3 elap:               0.1
 (Enter /usr/local/intel/g16/l202.exe)
                          Input orientation:                          
 ---------------------------------------------------------------------
 Center     Atomic      Atomic             Coordinates (Angstroms)
 Number     Number       Type             X           Y           Z
 ---------------------------------------------------------------------
      1          8           0       -1.030323    0.143453   -1.880773
      2          7           0       -1.054277    0.195572   -0.556861
      3          6           0       -1.284427   -1.109335    0.167844
      4          6           0       -0.491976    1.478257    0.005679
      5          6           0       -1.696217   -2.161500   -0.884314
      6          6           0       -2.443215   -0.990764    1.184121
      7          6           0       -0.884350    1.720364    1.473926
      8          6           0       -1.117500    2.621436   -0.831950
      9          1           0       -1.896027   -3.106313   -0.366519
     10          1           0       -0.916340   -2.322801   -1.629444
     11          1           0       -2.598464   -1.849217   -1.415614
     12          1           0       -2.721755   -1.994380    1.523597
     13          1           0       -3.317707   -0.537147    0.706670
     14          1           0       -2.184785   -0.406116    2.067869
     15          1           0       -0.553260    0.937437    2.158199
     16          1           0       -1.968216    1.830688    1.571717
     17          1           0       -0.417291    2.656458    1.798847
     18          1           0       -2.208568    2.534255   -0.838896
     19          1           0       -0.766963    2.583561   -1.864237
     20          1           0       -0.843580    3.587327   -0.393334
     21          6           0        0.026687   -1.574390    0.862900
     22          6           0        1.970437    0.800033    0.797375
     23          6           0        1.057711    1.545208   -0.199463
     24          1           0       -0.149808   -2.592704    1.227929
     25          1           0        0.205776   -0.966689    1.757100
     26          1           0        1.523032    0.785253    1.797620
     27          1           0        2.899609    1.377242    0.912924
     28          1           0        1.277374    1.217543   -1.222507
     29          1           0        1.311849    2.611725   -0.155167
     30          6           0        1.252836   -1.539499   -0.077906
     31          6           0        2.386119   -0.633340    0.407573
     32          8           0        3.333247   -0.612144   -0.705426
     33          1           0        0.963616   -1.183960   -1.072447
     34          1           0        1.665662   -2.542282   -0.221076
     35          1           0        2.873194   -1.088660    1.285341
     36          1           0        4.122569   -0.089497   -0.475672
 ---------------------------------------------------------------------
                    Distance matrix (angstroms):
                    1          2          3          4          5
     1  O    0.000000
     2  N    1.325154   0.000000
     3  C    2.414721   1.510281   0.000000
     4  C    2.372809   1.509276   2.711071   0.000000
     5  C    2.597913   2.464772   1.543910   3.935748   0.000000
     6  C    3.560377   2.523403   1.545855   3.360376   2.491396
     7  C    3.709712   2.545184   3.142150   1.538935   4.614032
     8  C    2.692216   2.442230   3.866019   1.549116   4.818105
     9  H    3.688277   3.412802   2.155811   4.809176   1.095768
    10  H    2.481646   2.740741   2.199598   4.159538   1.090617
    11  H    2.578017   2.702431   2.186654   4.186818   1.092634
    12  H    4.361308   3.450316   2.165013   4.397181   2.622536
    13  H    3.519972   2.693790   2.179899   3.540903   2.792666
    14  H    4.150492   2.920494   2.217038   3.266358   3.469215
    15  H    4.143826   2.858834   2.947099   2.220267   4.490729
    16  H    3.955514   2.835442   3.328988   2.180818   4.695065
    17  H    4.497845   3.465699   4.194436   2.146902   5.661071
    18  H    2.861766   2.623236   3.891441   2.185206   4.723842
    19  H    2.454335   2.737567   4.246717   2.189498   4.933494
    20  H    3.756011   3.402225   4.750568   2.175089   5.832415
    21  C    3.405289   2.513358   1.555120   3.212864   2.523064
    22  C    4.075308   3.368712   3.825720   2.673995   5.004309
    23  C    3.025162   2.531747   3.559090   1.564639   4.668279
    24  H    4.233898   3.431912   2.147446   4.264235   2.653090
    25  H    3.999309   2.879757   2.183297   3.087409   3.467307
    26  H    4.523506   3.540314   3.758651   2.784163   5.122469
    27  H    4.977082   4.380619   4.923857   3.512285   6.072428
    28  H    2.629154   2.631370   3.729646   2.169565   4.513818
    29  H    3.815213   3.405540   4.548766   2.136447   5.688918
    30  C    3.360874   2.926199   2.585177   3.486862   3.119951
    31  C    4.184735   3.667908   3.709036   3.592185   4.546396
    32  O    4.581824   4.463725   4.725750   4.416761   5.265740
    33  H    2.528084   2.498165   2.568577   3.220016   2.840016
    34  H    4.151638   3.873844   3.302669   4.568540   3.447769
    35  H    5.174923   4.524156   4.305234   4.421648   5.170871
    36  H    5.346108   5.185325   5.539836   4.897303   6.190190
                    6          7          8          9         10
     6  C    0.000000
     7  C    3.140742   0.000000
     8  C    4.343967   2.486635   0.000000
     9  H    2.679449   5.263795   5.799124   0.000000
    10  H    3.467249   5.096971   5.012179   1.780072   0.000000
    11  H    2.742201   4.901993   4.745593   1.781659   1.760553
    12  H    1.095479   4.144617   5.424757   2.343237   3.648157
    13  H    1.094744   3.406797   4.145468   3.126263   3.796387
    14  H    1.090692   2.562385   4.325982   3.647011   4.353476
    15  H    2.870317   1.091249   3.477817   4.952690   5.010710
    16  H    2.887290   1.093846   2.669572   5.304333   5.348397
    17  H    4.217165   1.095440   2.722611   6.331272   6.065909
    18  H    4.071046   2.786596   1.094568   5.668935   5.087810
    19  H    4.987796   3.449960   1.090838   5.991044   4.914248
    20  H    5.099619   2.640809   1.095610   6.775927   6.038450
    21  C    2.558167   3.472570   4.667616   2.748652   2.767887
    22  C    4.778792   3.074823   3.937964   5.618161   4.896430
    23  C    4.538936   2.569535   2.507957   5.512633   4.572004
    24  H    2.797829   4.382080   5.689181   2.419781   2.970690
    25  H    2.710358   2.913557   4.618320   3.674959   3.816656
    26  H    4.388819   2.602825   4.154349   5.614067   5.230230
    27  H    5.850365   3.840677   4.552996   6.688600   5.891979
    28  H    4.950885   3.492367   2.803368   5.431291   4.184736
    29  H    5.373279   2.876066   2.521877   6.559809   5.611405
    30  C    3.943934   4.195528   4.847727   3.528958   2.779597
    31  C    4.904411   4.168093   4.940175   5.005156   4.232015
    32  O    6.089438   5.289451   5.502835   5.803537   4.673237
    33  H    4.090956   4.281833   4.343952   3.517291   2.267474
    34  H    4.611362   5.248404   5.897723   3.609004   2.949306
    35  H    5.318274   4.695244   5.845800   5.435534   4.937575
    36  H    6.832036   5.669724   5.910534   6.733245   5.631114
                   11         12         13         14         15
    11  H    0.000000
    12  H    2.945375   0.000000
    13  H    2.596715   1.773713   0.000000
    14  H    3.793195   1.762711   1.775822   0.000000
    15  H    4.971965   3.701438   3.453042   2.115459   0.000000
    16  H    4.781533   3.898882   2.859384   2.301382   1.773121
    17  H    5.949066   5.197751   4.450211   3.546233   1.761435
    18  H    4.438406   5.133544   3.612821   4.134686   3.777890
    19  H    4.817175   6.021310   4.780656   5.139051   4.351481
    20  H    5.803506   6.193353   4.933822   4.878928   3.690057
    21  C    3.486915   2.857769   3.505032   2.776225   2.885033
    22  C    5.726317   5.509338   5.455341   4.509415   2.870500
    23  C    5.135052   5.457287   4.929661   4.411603   2.919449
    24  H    3.679267   2.657127   3.812166   3.102869   3.672883
    25  H    4.325359   3.111448   3.701735   2.474995   2.088711
    26  H    5.852524   5.081305   5.135335   3.903883   2.112857
    27  H    6.786821   6.583349   6.508644   5.510474   3.696815
    28  H    4.946153   5.818124   5.283505   5.044739   3.854718
    29  H    6.064592   6.348576   5.664887   5.125983   3.410797
    30  C    4.088753   4.309188   4.744484   4.207867   3.794385
    31  C    5.445038   5.402621   5.712473   4.868406   3.764569
    32  O    6.100812   6.598649   6.799620   6.179182   5.070156
    33  H    3.639882   4.580195   4.681170   4.514317   4.151905
    34  H    4.482190   4.753263   5.451169   4.962703   4.763718
    35  H    6.149199   5.672790   6.242298   5.163465   4.075235
    36  H    7.010877   7.380408   7.546922   6.808272   5.463995
                   16         17         18         19         20
    16  H    0.000000
    17  H    1.771681   0.000000
    18  H    2.522663   3.190814   0.000000
    19  H    3.716935   3.680458   1.769740   0.000000
    20  H    2.865661   2.419483   1.780640   1.782406   0.000000
    21  C    4.009566   4.355822   4.977292   5.035446   5.383197
    22  C    4.144254   3.185986   4.811340   4.214085   4.135878
    23  C    3.517785   2.720983   3.472127   2.679381   2.796917
    24  H    4.794913   5.286889   5.898811   6.061030   6.426710
    25  H    3.547665   3.676568   4.982455   5.163776   5.144373
    26  H    3.651408   2.695601   4.892347   4.678374   4.272324
    27  H    4.933086   3.663752   5.522773   4.755163   4.538970
    28  H    4.326371   3.751126   3.746022   2.541090   3.286617
    29  H    3.788268   2.609616   3.587035   2.691314   2.377898
    30  C    4.945158   4.890560   5.399620   4.926478   5.547864
    31  C    5.136818   4.540652   5.718259   5.044948   5.374610
    32  O    6.265646   5.569711   6.374116   5.326077   5.931175
    33  H    4.967428   4.989994   4.893099   4.220906   5.147070
    34  H    5.961715   5.953627   6.415808   5.906937   6.625562
    35  H    5.660729   5.011675   6.592587   6.054403   6.204612
    36  H    6.706458   5.772697   6.862893   5.742898   6.179680
                   21         22         23         24         25
    21  C    0.000000
    22  C    3.069258   0.000000
    23  C    3.453045   1.543386   0.000000
    24  H    1.096066   4.023864   4.540690   0.000000
    25  H    1.095886   2.675146   3.295991   1.746536   0.000000
    26  H    2.946297   1.095847   2.186869   3.812287   2.192283
    27  H    4.119261   1.099947   2.158288   5.015839   3.669248
    28  H    3.702436   2.175908   1.096465   4.749681   3.846719
    29  H    4.495738   2.150187   1.097272   5.579917   4.205379
    30  C    1.545890   2.598938   3.093262   2.186746   2.188994
    31  C    2.580662   1.542496   2.622829   3.308023   2.585777
    32  O    3.784033   2.471822   3.176197   4.448837   3.996350
    33  H    2.185369   2.906226   2.866934   2.918219   2.937323
    34  H    2.190447   3.507307   4.132511   2.323379   2.920093
    35  H    2.918389   2.149475   3.526738   3.376979   2.711559
    36  H    4.557733   2.653975   3.484524   5.236555   4.593039
                   26         27         28         29         30
    26  H    0.000000
    27  H    1.740144   0.000000
    28  H    3.060783   2.686488   0.000000
    29  H    2.682159   2.277224   1.756174   0.000000
    30  C    2.999179   3.492991   2.985296   4.152362   0.000000
    31  C    2.165538   2.135765   2.704116   3.464272   1.530080
    32  O    3.390404   2.600914   2.800311   3.844758   2.362600
    33  H    3.525341   3.774854   2.426557   3.920446   1.095065
    34  H    3.894607   4.262775   3.910232   5.166557   1.093845
    35  H    2.365780   2.494006   3.762249   4.266815   2.165008
    36  H    3.562392   2.361176   3.218890   3.911454   3.239767
                   31         32         33         34         35
    31  C    0.000000
    32  O    1.461598   0.000000
    33  H    2.125360   2.465123   0.000000
    34  H    2.135022   2.596318   1.750069   0.000000
    35  H    1.102286   2.098063   3.035578   2.416701   0.000000
    36  H    2.022658   0.974154   3.396023   3.481001   2.379166
                   36
    36  H    0.000000
 Stoichiometry    C11H22NO2(2)
 Framework group  C1[X(C11H22NO2)]
 Deg. of freedom   102
 Full point group                 C1      NOp   1
 Largest Abelian subgroup         C1      NOp   1
 Largest concise Abelian subgroup C1      NOp   1
                         Standard orientation:                         
 ---------------------------------------------------------------------
 Center     Atomic      Atomic             Coordinates (Angstroms)
 Number     Number       Type             X           Y           Z
 ---------------------------------------------------------------------
      1          8           0       -1.030323    0.143453   -1.880773
      2          7           0       -1.054277    0.195572   -0.556861
      3          6           0       -1.284427   -1.109335    0.167844
      4          6           0       -0.491976    1.478257    0.005679
      5          6           0       -1.696218   -2.161500   -0.884314
      6          6           0       -2.443215   -0.990763    1.184121
      7          6           0       -0.884350    1.720364    1.473926
      8          6           0       -1.117499    2.621436   -0.831950
      9          1           0       -1.896028   -3.106313   -0.366519
     10          1           0       -0.916341   -2.322801   -1.629444
     11          1           0       -2.598465   -1.849216   -1.415614
     12          1           0       -2.721756   -1.994379    1.523597
     13          1           0       -3.317707   -0.537146    0.706670
     14          1           0       -2.184785   -0.406116    2.067869
     15          1           0       -0.553260    0.937437    2.158199
     16          1           0       -1.968215    1.830688    1.571717
     17          1           0       -0.417290    2.656458    1.798847
     18          1           0       -2.208567    2.534255   -0.838896
     19          1           0       -0.766962    2.583561   -1.864237
     20          1           0       -0.843579    3.587327   -0.393334
     21          6           0        0.026687   -1.574390    0.862900
     22          6           0        1.970437    0.800032    0.797375
     23          6           0        1.057711    1.545208   -0.199463
     24          1           0       -0.149809   -2.592704    1.227929
     25          1           0        0.205776   -0.966689    1.757100
     26          1           0        1.523032    0.785252    1.797620
     27          1           0        2.899609    1.377241    0.912924
     28          1           0        1.277374    1.217542   -1.222507
     29          1           0        1.311850    2.611724   -0.155167
     30          6           0        1.252836   -1.539500   -0.077906
     31          6           0        2.386119   -0.633341    0.407573
     32          8           0        3.333247   -0.612145   -0.705426
     33          1           0        0.963616   -1.183960   -1.072447
     34          1           0        1.665661   -2.542283   -0.221076
     35          1           0        2.873194   -1.088661    1.285341
     36          1           0        4.122569   -0.089498   -0.475672
 ---------------------------------------------------------------------
 Rotational constants (GHZ):           0.8285927           0.6410625           0.4951419
 Leave Link  202 at Thu Jan  9 12:05:54 2025, MaxMem=  4026531840 cpu:               0.1 elap:               0.0
 (Enter /usr/local/intel/g16/l301.exe)
 Standard basis: def2TZVP (5D, 7F)
 Ernie: Thresh=  0.10000D-02 Tol=  0.10000D-05 Strict=F.
 There are   636 symmetry adapted cartesian basis functions of A   symmetry.
 There are   566 symmetry adapted basis functions of A   symmetry.
   566 basis functions,   890 primitive gaussians,   636 cartesian basis functions
    56 alpha electrons       55 beta electrons
       nuclear repulsion energy      1059.6935204415 Hartrees.
 IExCor= 4336 DFT=T Ex+Corr=M062X ExCW=0 ScaHFX=  0.540000
 ScaDFX=  1.000000  1.000000  1.000000  1.000000 ScalE2=  1.000000  1.000000
 IRadAn=      5 IRanWt=     -1 IRanGd=            0 ICorTp=0 IEmpDi=  4
 NAtoms=   36 NActive=   36 NUniq=   36 SFac= 1.00D+00 NAtFMM=   60 NAOKFM=F Big=F
 Integral buffers will be    131072 words long.
 Raffenetti 2 integral format.
 Two-electron integral symmetry is turned on.
 Leave Link  301 at Thu Jan  9 12:05:54 2025, MaxMem=  4026531840 cpu:               1.2 elap:               0.1
 (Enter /usr/local/intel/g16/l302.exe)
 NPDir=0 NMtPBC=     1 NCelOv=     1 NCel=       1 NClECP=     1 NCelD=      1
         NCelK=      1 NCelE2=     1 NClLst=     1 CellRange=     0.0.
 One-electron integrals computed using PRISM.
 One-electron integral symmetry used in STVInt
   1 Symmetry operations used in ECPInt.
 ECPInt:  NShTT=   29403 NPrTT=   85452 LenC2=   28261 LenP2D=   62699.
 LDataN:  DoStor=T MaxTD1= 6 Len=  172
 NBasis=   566 RedAO= T EigKep=  4.20D-05  NBF=   566
 NBsUse=   566 1.00D-06 EigRej= -1.00D+00 NBFU=   566
 Precomputing XC quadrature grid using
 IXCGrd= 4 IRadAn=           5 IRanWt=          -1 IRanGd=           0 AccXCQ= 0.00D+00.
 Generated NRdTot=       0 NPtTot=           0 NUsed=           0 NTot=          32
 NSgBfM=   632   631   632   632   632 MxSgAt=    36 MxSgA2=    36.
 Leave Link  302 at Thu Jan  9 12:05:55 2025, MaxMem=  4026531840 cpu:              22.8 elap:               1.2
 (Enter /usr/local/intel/g16/l303.exe)
 DipDrv:  MaxL=1.
 Leave Link  303 at Thu Jan  9 12:05:55 2025, MaxMem=  4026531840 cpu:               3.3 elap:               0.2
 (Enter /usr/local/intel/g16/l401.exe)
 ExpMin= 9.52D-02 ExpMax= 2.70D+04 ExpMxC= 9.22D+02 IAcc=3 IRadAn=         5 AccDes= 0.00D+00
 Harris functional with IExCor= 1009 and IRadAn=       5 diagonalized for initial guess.
 HarFok:  IExCor= 1009 AccDes= 0.00D+00 IRadAn=         5 IDoV= 1 UseB2=F ITyADJ=14
 ICtDFT=  3500011 ScaDFX=  1.000000  1.000000  1.000000  1.000000
 FoFCou: FMM=F IPFlag=           0 FMFlag=      100000 FMFlg1=           0
         NFxFlg=           0 DoJE=T BraDBF=F KetDBF=T FulRan=T
         wScrn=  0.000000 ICntrl=       500 IOpCl=  0 I1Cent=   200000004 NGrid=           0
         NMat0=    1 NMatS0=      1 NMatT0=    0 NMatD0=    1 NMtDS0=    0 NMtDT0=    0
 Petite list used in FoFCou.
 Harris En= -637.272197063724    
 JPrj=0 DoOrth=F DoCkMO=F.
 Initial guess <Sx>= 0.0000 <Sy>= 0.0000 <Sz>= 0.5000 <S**2>= 0.7500 S= 0.5000
 Leave Link  401 at Thu Jan  9 12:05:59 2025, MaxMem=  4026531840 cpu:              82.0 elap:               4.1
 (Enter /usr/local/intel/g16/l502.exe)
 Integral symmetry usage will be decided dynamically.
 UHF open shell SCF:
 Using DIIS extrapolation, IDIIS=  1040.
 NGot=  4026531840 LenX=  4025703394 LenY=  4025298262
 Requested convergence on RMS density matrix=1.00D-08 within 128 cycles.
 Requested convergence on MAX density matrix=1.00D-06.
 Requested convergence on             energy=1.00D-06.
 No special actions if energy rises.
 Fock matrices will be formed incrementally for  20 cycles.
 Integral accuracy reduced to 1.0D-05 until final iterations.

 Cycle   1  Pass 0  IDiag  1:
 FoFJK:  IHMeth= 1 ICntrl=       0 DoSepK=F KAlg= 0 I1Cent=           0 FoldK=F
 IRaf= 920000000 NMat=       1 IRICut=       1 DoRegI=T DoRafI=F ISym2E= 0 IDoP0=0 IntGTp=1.
 FoFCou: FMM=F IPFlag=           0 FMFlag=      100000 FMFlg1=           0
         NFxFlg=           0 DoJE=F BraDBF=F KetDBF=F FulRan=T
         wScrn=  0.000000 ICntrl=         0 IOpCl=  1 I1Cent=           0 NGrid=           0
         NMat0=    1 NMatS0=      1 NMatT0=    0 NMatD0=    1 NMtDS0=    0 NMtDT0=    0
 Symmetry not used in FoFCou.
 E= -636.972335404377    
 DIIS: error= 1.81D-02 at cycle   1 NSaved=   1.
 NSaved= 1 IEnMin= 1 EnMin= -636.972335404377     IErMin= 1 ErrMin= 1.81D-02
 ErrMax= 1.81D-02  0.00D+00 EMaxC= 1.00D-01 BMatC= 2.51D+00 BMatP= 2.51D+00
 IDIUse=3 WtCom= 8.19D-01 WtEn= 1.81D-01
 Coeff-Com:  0.100D+01
 Coeff-En:   0.100D+01
 Coeff:      0.100D+01
 Gap=     0.330 Goal=   None    Shift=    0.000
 Gap=     0.217 Goal=   None    Shift=    0.000
 GapD=    0.217 DampG=1.000 DampE=0.500 DampFc=0.5000 IDamp=-1.
 Damping current iteration by 5.00D-01
 RMSDP=3.18D-03 MaxDP=4.61D-01              OVMax= 1.62D-01

 Cycle   2  Pass 0  IDiag  1:
 RMSU=  1.59D-03    CP:  9.91D-01
 E= -637.227535395354     Delta-E=       -0.255199990977 Rises=F Damp=T
 DIIS: error= 6.75D-03 at cycle   2 NSaved=   2.
 NSaved= 2 IEnMin= 2 EnMin= -637.227535395354     IErMin= 2 ErrMin= 6.75D-03
 ErrMax= 6.75D-03  0.00D+00 EMaxC= 1.00D-01 BMatC= 1.87D-01 BMatP= 2.51D+00
 IDIUse=3 WtCom= 9.32D-01 WtEn= 6.75D-02
 Coeff-Com: -0.314D-01 0.103D+01
 Coeff-En:   0.000D+00 0.100D+01
 Coeff:     -0.293D-01 0.103D+01
 Gap=     0.337 Goal=   None    Shift=    0.000
 Gap=     0.316 Goal=   None    Shift=    0.000
 RMSDP=9.81D-04 MaxDP=8.67D-02 DE=-2.55D-01 OVMax= 1.36D-01

 Cycle   3  Pass 0  IDiag  1:
 RMSU=  9.76D-04    CP:  9.79D-01  9.59D-01
 E= -637.473513324432     Delta-E=       -0.245977929078 Rises=F Damp=F
 DIIS: error= 6.47D-03 at cycle   3 NSaved=   3.
 NSaved= 3 IEnMin= 3 EnMin= -637.473513324432     IErMin= 3 ErrMin= 6.47D-03
 ErrMax= 6.47D-03  0.00D+00 EMaxC= 1.00D-01 BMatC= 1.04D-01 BMatP= 1.87D-01
 IDIUse=3 WtCom= 9.35D-01 WtEn= 6.47D-02
 Coeff-Com: -0.685D-01 0.449D+00 0.620D+00
 Coeff-En:   0.000D+00 0.000D+00 0.100D+01
 Coeff:     -0.641D-01 0.420D+00 0.644D+00
 Gap=     0.322 Goal=   None    Shift=    0.000
 Gap=     0.291 Goal=   None    Shift=    0.000
 RMSDP=3.43D-04 MaxDP=2.67D-02 DE=-2.46D-01 OVMax= 8.48D-02

 Cycle   4  Pass 0  IDiag  1:
 RMSU=  3.17D-04    CP:  9.82D-01  1.03D+00  9.24D-01
 E= -637.485976653717     Delta-E=       -0.012463329285 Rises=F Damp=F
 DIIS: error= 3.89D-03 at cycle   4 NSaved=   4.
 NSaved= 4 IEnMin= 4 EnMin= -637.485976653717     IErMin= 4 ErrMin= 3.89D-03
 ErrMax= 3.89D-03  0.00D+00 EMaxC= 1.00D-01 BMatC= 3.65D-02 BMatP= 1.04D-01
 IDIUse=3 WtCom= 9.61D-01 WtEn= 3.89D-02
 Coeff-Com: -0.253D-01 0.792D-01 0.393D+00 0.553D+00
 Coeff-En:   0.000D+00 0.000D+00 0.277D+00 0.723D+00
 Coeff:     -0.243D-01 0.761D-01 0.388D+00 0.560D+00
 Gap=     0.314 Goal=   None    Shift=    0.000
 Gap=     0.302 Goal=   None    Shift=    0.000
 RMSDP=1.62D-04 MaxDP=9.72D-03 DE=-1.25D-02 OVMax= 2.23D-02

 Cycle   5  Pass 0  IDiag  1:
 RMSU=  1.06D-04    CP:  9.79D-01  1.02D+00  9.45D-01  6.25D-01
 E= -637.492598441280     Delta-E=       -0.006621787563 Rises=F Damp=F
 DIIS: error= 4.25D-04 at cycle   5 NSaved=   5.
 NSaved= 5 IEnMin= 5 EnMin= -637.492598441280     IErMin= 5 ErrMin= 4.25D-04
 ErrMax= 4.25D-04  0.00D+00 EMaxC= 1.00D-01 BMatC= 8.15D-04 BMatP= 3.65D-02
 IDIUse=3 WtCom= 9.96D-01 WtEn= 4.25D-03
 Coeff-Com: -0.560D-02 0.839D-02 0.134D+00 0.222D+00 0.641D+00
 Coeff-En:   0.000D+00 0.000D+00 0.000D+00 0.000D+00 0.100D+01
 Coeff:     -0.558D-02 0.836D-02 0.133D+00 0.221D+00 0.643D+00
 Gap=     0.311 Goal=   None    Shift=    0.000
 Gap=     0.302 Goal=   None    Shift=    0.000
 RMSDP=4.60D-05 MaxDP=4.31D-03 DE=-6.62D-03 OVMax= 8.50D-03

 Cycle   6  Pass 0  IDiag  1:
 RMSU=  3.39D-05    CP:  9.79D-01  1.01D+00  9.67D-01  6.64D-01  8.62D-01
 E= -637.492789357928     Delta-E=       -0.000190916648 Rises=F Damp=F
 DIIS: error= 2.45D-04 at cycle   6 NSaved=   6.
 NSaved= 6 IEnMin= 6 EnMin= -637.492789357928     IErMin= 6 ErrMin= 2.45D-04
 ErrMax= 2.45D-04  0.00D+00 EMaxC= 1.00D-01 BMatC= 1.54D-04 BMatP= 8.15D-04
 IDIUse=3 WtCom= 9.98D-01 WtEn= 2.45D-03
 Coeff-Com:  0.253D-02-0.970D-02-0.568D-02-0.154D-01 0.239D+00 0.790D+00
 Coeff-En:   0.000D+00 0.000D+00 0.000D+00 0.000D+00 0.000D+00 0.100D+01
 Coeff:      0.252D-02-0.967D-02-0.566D-02-0.154D-01 0.238D+00 0.790D+00
 Gap=     0.312 Goal=   None    Shift=    0.000
 Gap=     0.303 Goal=   None    Shift=    0.000
 RMSDP=2.17D-05 MaxDP=1.85D-03 DE=-1.91D-04 OVMax= 3.93D-03

 Cycle   7  Pass 0  IDiag  1:
 RMSU=  1.58D-05    CP:  9.79D-01  1.01D+00  9.69D-01  6.60D-01  9.80D-01
                    CP:  1.22D+00
 E= -637.492839398020     Delta-E=       -0.000050040092 Rises=F Damp=F
 DIIS: error= 1.20D-04 at cycle   7 NSaved=   7.
 NSaved= 7 IEnMin= 7 EnMin= -637.492839398020     IErMin= 7 ErrMin= 1.20D-04
 ErrMax= 1.20D-04  0.00D+00 EMaxC= 1.00D-01 BMatC= 2.50D-05 BMatP= 1.54D-04
 IDIUse=3 WtCom= 9.99D-01 WtEn= 1.20D-03
 Coeff-Com:  0.188D-02-0.369D-02-0.237D-01-0.565D-01-0.813D-01 0.889D-01
 Coeff-Com:  0.107D+01
 Coeff-En:   0.000D+00 0.000D+00 0.000D+00 0.000D+00 0.000D+00 0.000D+00
 Coeff-En:   0.100D+01
 Coeff:      0.188D-02-0.369D-02-0.237D-01-0.564D-01-0.812D-01 0.888D-01
 Coeff:      0.107D+01
 Gap=     0.313 Goal=   None    Shift=    0.000
 Gap=     0.304 Goal=   None    Shift=    0.000
 RMSDP=1.59D-05 MaxDP=1.32D-03 DE=-5.00D-05 OVMax= 3.91D-03

 Cycle   8  Pass 0  IDiag  1:
 RMSU=  7.61D-06    CP:  9.79D-01  1.01D+00  9.71D-01  6.54D-01  1.07D+00
                    CP:  1.44D+00  1.28D+00
 E= -637.492854955103     Delta-E=       -0.000015557083 Rises=F Damp=F
 DIIS: error= 6.79D-05 at cycle   8 NSaved=   8.
 NSaved= 8 IEnMin= 8 EnMin= -637.492854955103     IErMin= 8 ErrMin= 6.79D-05
 ErrMax= 6.79D-05  0.00D+00 EMaxC= 1.00D-01 BMatC= 6.71D-06 BMatP= 2.50D-05
 IDIUse=1 WtCom= 1.00D+00 WtEn= 0.00D+00
 Coeff-Com:  0.412D-03-0.864D-04-0.724D-02-0.227D-01-0.646D-01-0.982D-01
 Coeff-Com:  0.426D+00 0.766D+00
 Coeff:      0.412D-03-0.864D-04-0.724D-02-0.227D-01-0.646D-01-0.982D-01
 Coeff:      0.426D+00 0.766D+00
 Gap=     0.313 Goal=   None    Shift=    0.000
 Gap=     0.304 Goal=   None    Shift=    0.000
 RMSDP=6.32D-06 MaxDP=4.41D-04 DE=-1.56D-05 OVMax= 1.43D-03

 Initial convergence to 1.0D-05 achieved.  Increase integral accuracy.
 Cycle   9  Pass 1  IDiag  1:
 E= -637.492872479954     Delta-E=       -0.000017524851 Rises=F Damp=F
 DIIS: error= 6.47D-05 at cycle   1 NSaved=   1.
 NSaved= 1 IEnMin= 1 EnMin= -637.492872479954     IErMin= 1 ErrMin= 6.47D-05
 ErrMax= 6.47D-05  0.00D+00 EMaxC= 1.00D-01 BMatC= 2.28D-05 BMatP= 2.28D-05
 IDIUse=1 WtCom= 1.00D+00 WtEn= 0.00D+00
 Coeff-Com:  0.100D+01
 Coeff:      0.100D+01
 Gap=     0.313 Goal=   None    Shift=    0.000
 Gap=     0.304 Goal=   None    Shift=    0.000
 RMSDP=6.32D-06 MaxDP=4.41D-04 DE=-1.75D-05 OVMax= 3.27D-04

 Cycle  10  Pass 1  IDiag  1:
 RMSU=  5.26D-05    CP:  1.00D+00
 E= -637.492875174607     Delta-E=       -0.000002694653 Rises=F Damp=F
 DIIS: error= 1.91D-05 at cycle   2 NSaved=   2.
 NSaved= 2 IEnMin= 2 EnMin= -637.492875174607     IErMin= 2 ErrMin= 1.91D-05
 ErrMax= 1.91D-05  0.00D+00 EMaxC= 1.00D-01 BMatC= 1.60D-06 BMatP= 2.28D-05
 IDIUse=1 WtCom= 1.00D+00 WtEn= 0.00D+00
 Coeff-Com:  0.843D-01 0.916D+00
 Coeff:      0.843D-01 0.916D+00
 Gap=     0.313 Goal=   None    Shift=    0.000
 Gap=     0.304 Goal=   None    Shift=    0.000
 RMSDP=3.37D-06 MaxDP=3.42D-04 DE=-2.69D-06 OVMax= 6.51D-04

 Cycle  11  Pass 1  IDiag  1:
 RMSU=  2.82D-06    CP:  1.00D+00  1.03D+00
 E= -637.492875132491     Delta-E=        0.000000042116 Rises=F Damp=F
 DIIS: error= 3.30D-05 at cycle   3 NSaved=   3.
 NSaved= 3 IEnMin= 2 EnMin= -637.492875174607     IErMin= 2 ErrMin= 1.91D-05
 ErrMax= 3.30D-05  0.00D+00 EMaxC= 1.00D-01 BMatC= 2.97D-06 BMatP= 1.60D-06
 IDIUse=1 WtCom= 1.00D+00 WtEn= 0.00D+00
 Coeff-Com: -0.128D-01 0.587D+00 0.426D+00
 Coeff:     -0.128D-01 0.587D+00 0.426D+00
 Gap=     0.313 Goal=   None    Shift=    0.000
 Gap=     0.304 Goal=   None    Shift=    0.000
 RMSDP=1.63D-06 MaxDP=1.49D-04 DE= 4.21D-08 OVMax= 1.28D-04

 Cycle  12  Pass 1  IDiag  1:
 RMSU=  1.14D-06    CP:  1.00D+00  1.04D+00  6.13D-01
 E= -637.492875685575     Delta-E=       -0.000000553084 Rises=F Damp=F
 DIIS: error= 5.52D-06 at cycle   4 NSaved=   4.
 NSaved= 4 IEnMin= 4 EnMin= -637.492875685575     IErMin= 4 ErrMin= 5.52D-06
 ErrMax= 5.52D-06  0.00D+00 EMaxC= 1.00D-01 BMatC= 6.40D-08 BMatP= 1.60D-06
 IDIUse=1 WtCom= 1.00D+00 WtEn= 0.00D+00
 Coeff-Com: -0.741D-02 0.112D+00 0.559D-01 0.839D+00
 Coeff:     -0.741D-02 0.112D+00 0.559D-01 0.839D+00
 Gap=     0.313 Goal=   None    Shift=    0.000
 Gap=     0.304 Goal=   None    Shift=    0.000
 RMSDP=5.04D-07 MaxDP=4.87D-05 DE=-5.53D-07 OVMax= 1.71D-04

 Cycle  13  Pass 1  IDiag  1:
 RMSU=  3.31D-07    CP:  1.00D+00  1.04D+00  6.14D-01  1.33D+00
 E= -637.492875722424     Delta-E=       -0.000000036850 Rises=F Damp=F
 DIIS: error= 8.42D-06 at cycle   5 NSaved=   5.
 NSaved= 5 IEnMin= 5 EnMin= -637.492875722424     IErMin= 4 ErrMin= 5.52D-06
 ErrMax= 8.42D-06  0.00D+00 EMaxC= 1.00D-01 BMatC= 7.15D-08 BMatP= 6.40D-08
 IDIUse=1 WtCom= 1.00D+00 WtEn= 0.00D+00
 Coeff-Com:  0.608D-02-0.391D+00-0.363D+00 0.622D+00 0.113D+01
 Coeff:      0.608D-02-0.391D+00-0.363D+00 0.622D+00 0.113D+01
 Gap=     0.313 Goal=   None    Shift=    0.000
 Gap=     0.304 Goal=   None    Shift=    0.000
 RMSDP=9.06D-07 MaxDP=5.92D-05 DE=-3.68D-08 OVMax= 2.04D-04

 Cycle  14  Pass 1  IDiag  1:
 RMSU=  3.63D-07    CP:  1.00D+00  1.04D+00  6.72D-01  2.02D+00  1.51D+00
 E= -637.492875758378     Delta-E=       -0.000000035954 Rises=F Damp=F
 DIIS: error= 6.02D-07 at cycle   6 NSaved=   6.
 NSaved= 6 IEnMin= 6 EnMin= -637.492875758378     IErMin= 6 ErrMin= 6.02D-07
 ErrMax= 6.02D-07  0.00D+00 EMaxC= 1.00D-01 BMatC= 2.20D-09 BMatP= 6.40D-08
 IDIUse=1 WtCom= 1.00D+00 WtEn= 0.00D+00
 Coeff-Com:  0.288D-02-0.157D+00-0.146D+00 0.193D+00 0.407D+00 0.700D+00
 Coeff:      0.288D-02-0.157D+00-0.146D+00 0.193D+00 0.407D+00 0.700D+00
 Gap=     0.313 Goal=   None    Shift=    0.000
 Gap=     0.304 Goal=   None    Shift=    0.000
 RMSDP=1.18D-07 MaxDP=1.42D-05 DE=-3.60D-08 OVMax= 2.84D-05

 Cycle  15  Pass 1  IDiag  1:
 RMSU=  8.02D-08    CP:  1.00D+00  1.04D+00  6.63D-01  2.08D+00  1.62D+00
                    CP:  1.07D+00
 E= -637.492875759187     Delta-E=       -0.000000000809 Rises=F Damp=F
 DIIS: error= 2.30D-07 at cycle   7 NSaved=   7.
 NSaved= 7 IEnMin= 7 EnMin= -637.492875759187     IErMin= 7 ErrMin= 2.30D-07
 ErrMax= 2.30D-07  0.00D+00 EMaxC= 1.00D-01 BMatC= 3.53D-10 BMatP= 2.20D-09
 IDIUse=1 WtCom= 1.00D+00 WtEn= 0.00D+00
 Coeff-Com:  0.258D-03-0.483D-02-0.579D-02-0.105D-01-0.113D-01 0.278D+00
 Coeff-Com:  0.755D+00
 Coeff:      0.258D-03-0.483D-02-0.579D-02-0.105D-01-0.113D-01 0.278D+00
 Coeff:      0.755D+00
 Gap=     0.313 Goal=   None    Shift=    0.000
 Gap=     0.304 Goal=   None    Shift=    0.000
 RMSDP=4.87D-08 MaxDP=2.88D-06 DE=-8.09D-10 OVMax= 6.22D-06

 Cycle  16  Pass 1  IDiag  1:
 RMSU=  3.56D-08    CP:  1.00D+00  1.04D+00  6.61D-01  2.08D+00  1.63D+00
                    CP:  1.16D+00  1.01D+00
 E= -637.492875759290     Delta-E=       -0.000000000103 Rises=F Damp=F
 DIIS: error= 8.52D-08 at cycle   8 NSaved=   8.
 NSaved= 8 IEnMin= 8 EnMin= -637.492875759290     IErMin= 8 ErrMin= 8.52D-08
 ErrMax= 8.52D-08  0.00D+00 EMaxC= 1.00D-01 BMatC= 2.64D-11 BMatP= 3.53D-10
 IDIUse=1 WtCom= 1.00D+00 WtEn= 0.00D+00
 Coeff-Com: -0.262D-03 0.167D-01 0.149D-01-0.238D-01-0.510D-01-0.322D-02
 Coeff-Com:  0.201D+00 0.845D+00
 Coeff:     -0.262D-03 0.167D-01 0.149D-01-0.238D-01-0.510D-01-0.322D-02
 Coeff:      0.201D+00 0.845D+00
 Gap=     0.313 Goal=   None    Shift=    0.000
 Gap=     0.304 Goal=   None    Shift=    0.000
 RMSDP=2.39D-08 MaxDP=1.49D-06 DE=-1.03D-10 OVMax= 3.49D-06

 Cycle  17  Pass 1  IDiag  1:
 RMSU=  1.34D-08    CP:  1.00D+00  1.04D+00  6.60D-01  2.08D+00  1.63D+00
                    CP:  1.19D+00  1.14D+00  1.30D+00
 E= -637.492875759320     Delta-E=       -0.000000000030 Rises=F Damp=F
 DIIS: error= 5.71D-08 at cycle   9 NSaved=   9.
 NSaved= 9 IEnMin= 9 EnMin= -637.492875759320     IErMin= 9 ErrMin= 5.71D-08
 ErrMax= 5.71D-08  0.00D+00 EMaxC= 1.00D-01 BMatC= 4.18D-12 BMatP= 2.64D-11
 IDIUse=1 WtCom= 1.00D+00 WtEn= 0.00D+00
 Coeff-Com: -0.511D-04 0.199D-02 0.188D-02-0.598D-03-0.355D-02-0.308D-01
 Coeff-Com: -0.705D-01 0.711D-01 0.103D+01
 Coeff:     -0.511D-04 0.199D-02 0.188D-02-0.598D-03-0.355D-02-0.308D-01
 Coeff:     -0.705D-01 0.711D-01 0.103D+01
 Gap=     0.313 Goal=   None    Shift=    0.000
 Gap=     0.304 Goal=   None    Shift=    0.000
 RMSDP=1.22D-08 MaxDP=7.63D-07 DE=-3.02D-11 OVMax= 2.99D-06

 Cycle  18  Pass 1  IDiag  1:
 RMSU=  4.05D-09    CP:  1.00D+00  1.04D+00  6.59D-01  2.07D+00  1.62D+00
                    CP:  1.19D+00  1.18D+00  1.52D+00  1.34D+00
 E= -637.492875759318     Delta-E=        0.000000000002 Rises=F Damp=F
 DIIS: error= 3.97D-08 at cycle  10 NSaved=  10.
 NSaved=10 IEnMin= 9 EnMin= -637.492875759320     IErMin=10 ErrMin= 3.97D-08
 ErrMax= 3.97D-08  0.00D+00 EMaxC= 1.00D-01 BMatC= 1.70D-12 BMatP= 4.18D-12
 IDIUse=1 WtCom= 1.00D+00 WtEn= 0.00D+00
 Coeff-Com:  0.588D-04-0.414D-02-0.367D-02 0.664D-02 0.136D-01-0.996D-02
 Coeff-Com: -0.825D-01-0.213D+00 0.352D+00 0.941D+00
 Coeff:      0.588D-04-0.414D-02-0.367D-02 0.664D-02 0.136D-01-0.996D-02
 Coeff:     -0.825D-01-0.213D+00 0.352D+00 0.941D+00
 Gap=     0.313 Goal=   None    Shift=    0.000
 Gap=     0.304 Goal=   None    Shift=    0.000
 RMSDP=6.86D-09 MaxDP=4.27D-07 DE= 2.05D-12 OVMax= 2.46D-06

 SCF Done:  E(UM062X) =  -637.492875759     A.U. after   18 cycles
            NFock= 18  Conv=0.69D-08     -V/T= 2.0060
 <Sx>= 0.0000 <Sy>= 0.0000 <Sz>= 0.5000 <S**2>= 0.7559 S= 0.5030
 <L.S>=  0.00000000000    
 KE= 6.337099232119D+02 PE=-3.603366486059D+03 EE= 1.272470166646D+03
 Annihilation of the first spin contaminant:
 S**2 before annihilation     0.7559,   after     0.7500
 Leave Link  502 at Thu Jan  9 12:14:52 2025, MaxMem=  4026531840 cpu:           10640.6 elap:             532.2
 (Enter /usr/local/intel/g16/l601.exe)
 Copying SCF densities to generalized density rwf, IOpCl= 1 IROHF=0.

 **********************************************************************

            Population analysis using the SCF Density.

 **********************************************************************

 Orbital symmetries:
 Alpha Orbitals:
       Occupied  (A) (A) (A) (A) (A) (A) (A) (A) (A) (A) (A) (A)
                 (A) (A) (A) (A) (A) (A) (A) (A) (A) (A) (A) (A)
                 (A) (A) (A) (A) (A) (A) (A) (A) (A) (A) (A) (A)
                 (A) (A) (A) (A) (A) (A) (A) (A) (A) (A) (A) (A)
                 (A) (A) (A) (A) (A) (A) (A) (A)
       Virtual   (A) (A) (A) (A) (A) (A) (A) (A) (A) (A) (A) (A)
                 (A) (A) (A) (A) (A) (A) (A) (A) (A) (A) (A) (A)
                 (A) (A) (A) (A) (A) (A) (A) (A) (A) (A) (A) (A)
                 (A) (A) (A) (A) (A) (A) (A) (A) (A) (A) (A) (A)
                 (A) (A) (A) (A) (A) (A) (A) (A) (A) (A) (A) (A)
                 (A) (A) (A) (A) (A) (A) (A) (A) (A) (A) (A) (A)
                 (A) (A) (A) (A) (A) (A) (A) (A) (A) (A) (A) (A)
                 (A) (A) (A) (A) (A) (A) (A) (A) (A) (A) (A) (A)
                 (A) (A) (A) (A) (A) (A) (A) (A) (A) (A) (A) (A)
                 (A) (A) (A) (A) (A) (A) (A) (A) (A) (A) (A) (A)
                 (A) (A) (A) (A) (A) (A) (A) (A) (A) (A) (A) (A)
                 (A) (A) (A) (A) (A) (A) (A) (A) (A) (A) (A) (A)
                 (A) (A) (A) (A) (A) (A) (A) (A) (A) (A) (A) (A)
                 (A) (A) (A) (A) (A) (A) (A) (A) (A) (A) (A) (A)
                 (A) (A) (A) (A) (A) (A) (A) (A) (A) (A) (A) (A)
                 (A) (A) (A) (A) (A) (A) (A) (A) (A) (A) (A) (A)
                 (A) (A) (A) (A) (A) (A) (A) (A) (A) (A) (A) (A)
                 (A) (A) (A) (A) (A) (A) (A) (A) (A) (A) (A) (A)
                 (A) (A) (A) (A) (A) (A) (A) (A) (A) (A) (A) (A)
                 (A) (A) (A) (A) (A) (A) (A) (A) (A) (A) (A) (A)
                 (A) (A) (A) (A) (A) (A) (A) (A) (A) (A) (A) (A)
                 (A) (A) (A) (A) (A) (A) (A) (A) (A) (A) (A) (A)
                 (A) (A) (A) (A) (A) (A) (A) (A) (A) (A) (A) (A)
                 (A) (A) (A) (A) (A) (A) (A) (A) (A) (A) (A) (A)
                 (A) (A) (A) (A) (A) (A) (A) (A) (A) (A) (A) (A)
                 (A) (A) (A) (A) (A) (A) (A) (A) (A) (A) (A) (A)
                 (A) (A) (A) (A) (A) (A) (A) (A) (A) (A) (A) (A)
                 (A) (A) (A) (A) (A) (A) (A) (A) (A) (A) (A) (A)
                 (A) (A) (A) (A) (A) (A) (A) (A) (A) (A) (A) (A)
                 (A) (A) (A) (A) (A) (A) (A) (A) (A) (A) (A) (A)
                 (A) (A) (A) (A) (A) (A) (A) (A) (A) (A) (A) (A)
                 (A) (A) (A) (A) (A) (A) (A) (A) (A) (A) (A) (A)
                 (A) (A) (A) (A) (A) (A) (A) (A) (A) (A) (A) (A)
                 (A) (A) (A) (A) (A) (A) (A) (A) (A) (A) (A) (A)
                 (A) (A) (A) (A) (A) (A) (A) (A) (A) (A) (A) (A)
                 (A) (A) (A) (A) (A) (A) (A) (A) (A) (A) (A) (A)
                 (A) (A) (A) (A) (A) (A) (A) (A) (A) (A) (A) (A)
                 (A) (A) (A) (A) (A) (A) (A) (A) (A) (A) (A) (A)
                 (A) (A) (A) (A) (A) (A) (A) (A) (A) (A) (A) (A)
                 (A) (A) (A) (A) (A) (A) (A) (A) (A) (A) (A) (A)
                 (A) (A) (A) (A) (A) (A) (A) (A) (A) (A) (A) (A)
                 (A) (A) (A) (A) (A) (A) (A) (A) (A) (A) (A) (A)
                 (A) (A) (A) (A) (A) (A)
 Beta  Orbitals:
       Occupied  (A) (A) (A) (A) (A) (A) (A) (A) (A) (A) (A) (A)
                 (A) (A) (A) (A) (A) (A) (A) (A) (A) (A) (A) (A)
                 (A) (A) (A) (A) (A) (A) (A) (A) (A) (A) (A) (A)
                 (A) (A) (A) (A) (A) (A) (A) (A) (A) (A) (A) (A)
                 (A) (A) (A) (A) (A) (A) (A)
       Virtual   (A) (A) (A) (A) (A) (A) (A) (A) (A) (A) (A) (A)
                 (A) (A) (A) (A) (A) (A) (A) (A) (A) (A) (A) (A)
                 (A) (A) (A) (A) (A) (A) (A) (A) (A) (A) (A) (A)
                 (A) (A) (A) (A) (A) (A) (A) (A) (A) (A) (A) (A)
                 (A) (A) (A) (A) (A) (A) (A) (A) (A) (A) (A) (A)
                 (A) (A) (A) (A) (A) (A) (A) (A) (A) (A) (A) (A)
                 (A) (A) (A) (A) (A) (A) (A) (A) (A) (A) (A) (A)
                 (A) (A) (A) (A) (A) (A) (A) (A) (A) (A) (A) (A)
                 (A) (A) (A) (A) (A) (A) (A) (A) (A) (A) (A) (A)
                 (A) (A) (A) (A) (A) (A) (A) (A) (A) (A) (A) (A)
                 (A) (A) (A) (A) (A) (A) (A) (A) (A) (A) (A) (A)
                 (A) (A) (A) (A) (A) (A) (A) (A) (A) (A) (A) (A)
                 (A) (A) (A) (A) (A) (A) (A) (A) (A) (A) (A) (A)
                 (A) (A) (A) (A) (A) (A) (A) (A) (A) (A) (A) (A)
                 (A) (A) (A) (A) (A) (A) (A) (A) (A) (A) (A) (A)
                 (A) (A) (A) (A) (A) (A) (A) (A) (A) (A) (A) (A)
                 (A) (A) (A) (A) (A) (A) (A) (A) (A) (A) (A) (A)
                 (A) (A) (A) (A) (A) (A) (A) (A) (A) (A) (A) (A)
                 (A) (A) (A) (A) (A) (A) (A) (A) (A) (A) (A) (A)
                 (A) (A) (A) (A) (A) (A) (A) (A) (A) (A) (A) (A)
                 (A) (A) (A) (A) (A) (A) (A) (A) (A) (A) (A) (A)
                 (A) (A) (A) (A) (A) (A) (A) (A) (A) (A) (A) (A)
                 (A) (A) (A) (A) (A) (A) (A) (A) (A) (A) (A) (A)
                 (A) (A) (A) (A) (A) (A) (A) (A) (A) (A) (A) (A)
                 (A) (A) (A) (A) (A) (A) (A) (A) (A) (A) (A) (A)
                 (A) (A) (A) (A) (A) (A) (A) (A) (A) (A) (A) (A)
                 (A) (A) (A) (A) (A) (A) (A) (A) (A) (A) (A) (A)
                 (A) (A) (A) (A) (A) (A) (A) (A) (A) (A) (A) (A)
                 (A) (A) (A) (A) (A) (A) (A) (A) (A) (A) (A) (A)
                 (A) (A) (A) (A) (A) (A) (A) (A) (A) (A) (A) (A)
                 (A) (A) (A) (A) (A) (A) (A) (A) (A) (A) (A) (A)
                 (A) (A) (A) (A) (A) (A) (A) (A) (A) (A) (A) (A)
                 (A) (A) (A) (A) (A) (A) (A) (A) (A) (A) (A) (A)
                 (A) (A) (A) (A) (A) (A) (A) (A) (A) (A) (A) (A)
                 (A) (A) (A) (A) (A) (A) (A) (A) (A) (A) (A) (A)
                 (A) (A) (A) (A) (A) (A) (A) (A) (A) (A) (A) (A)
                 (A) (A) (A) (A) (A) (A) (A) (A) (A) (A) (A) (A)
                 (A) (A) (A) (A) (A) (A) (A) (A) (A) (A) (A) (A)
                 (A) (A) (A) (A) (A) (A) (A) (A) (A) (A) (A) (A)
                 (A) (A) (A) (A) (A) (A) (A) (A) (A) (A) (A) (A)
                 (A) (A) (A) (A) (A) (A) (A) (A) (A) (A) (A) (A)
                 (A) (A) (A) (A) (A) (A) (A) (A) (A) (A) (A) (A)
                 (A) (A) (A) (A) (A) (A) (A)
 The electronic state is 2-A.
 Alpha  occ. eigenvalues --  -19.62039 -19.62023 -14.83060 -10.59412 -10.59375
 Alpha  occ. eigenvalues --  -10.59167 -10.54314 -10.53979 -10.53912 -10.53686
 Alpha  occ. eigenvalues --  -10.53383 -10.52922 -10.52287 -10.52189  -1.18711
 Alpha  occ. eigenvalues --   -1.12832  -0.96184  -0.92477  -0.88961  -0.83126
 Alpha  occ. eigenvalues --   -0.81757  -0.78872  -0.77818  -0.76815  -0.72824
 Alpha  occ. eigenvalues --   -0.67508  -0.64785  -0.59171  -0.58470  -0.56999
 Alpha  occ. eigenvalues --   -0.55703  -0.54978  -0.53794  -0.53219  -0.49658
 Alpha  occ. eigenvalues --   -0.49089  -0.48287  -0.48082  -0.47092  -0.46202
 Alpha  occ. eigenvalues --   -0.45576  -0.45294  -0.43522  -0.43373  -0.42836
 Alpha  occ. eigenvalues --   -0.42529  -0.42076  -0.41165  -0.39701  -0.38936
 Alpha  occ. eigenvalues --   -0.38576  -0.38337  -0.37013  -0.34533  -0.33125
 Alpha  occ. eigenvalues --   -0.26193
 Alpha virt. eigenvalues --    0.05088   0.06314   0.07684   0.07956   0.08984
 Alpha virt. eigenvalues --    0.10237   0.10810   0.11517   0.11810   0.12495
 Alpha virt. eigenvalues --    0.13013   0.13627   0.14312   0.15183   0.15715
 Alpha virt. eigenvalues --    0.16071   0.16530   0.16761   0.17631   0.18576
 Alpha virt. eigenvalues --    0.18726   0.19182   0.19339   0.19728   0.20183
 Alpha virt. eigenvalues --    0.20478   0.21001   0.22679   0.23284   0.23472
 Alpha virt. eigenvalues --    0.23967   0.25442   0.26300   0.26611   0.26893
 Alpha virt. eigenvalues --    0.27877   0.28034   0.28469   0.30091   0.30291
 Alpha virt. eigenvalues --    0.31094   0.33360   0.33861   0.34553   0.35346
 Alpha virt. eigenvalues --    0.35782   0.36171   0.36800   0.37543   0.38306
 Alpha virt. eigenvalues --    0.38521   0.39906   0.40537   0.40873   0.41490
 Alpha virt. eigenvalues --    0.41833   0.43262   0.43405   0.43714   0.44238
 Alpha virt. eigenvalues --    0.45000   0.45442   0.45880   0.46065   0.46804
 Alpha virt. eigenvalues --    0.47424   0.47773   0.48153   0.48703   0.49397
 Alpha virt. eigenvalues --    0.49609   0.49852   0.50243   0.50798   0.50996
 Alpha virt. eigenvalues --    0.51620   0.51919   0.52564   0.52782   0.52953
 Alpha virt. eigenvalues --    0.53894   0.54690   0.55486   0.55707   0.56554
 Alpha virt. eigenvalues --    0.56754   0.57477   0.57793   0.59372   0.59627
 Alpha virt. eigenvalues --    0.60377   0.61351   0.62647   0.62855   0.65030
 Alpha virt. eigenvalues --    0.65806   0.66354   0.67280   0.69240   0.69930
 Alpha virt. eigenvalues --    0.71486   0.72681   0.73284   0.74113   0.75379
 Alpha virt. eigenvalues --    0.77233   0.77348   0.79505   0.81245   0.82035
 Alpha virt. eigenvalues --    0.83889   0.84492   0.85000   0.87104   0.88667
 Alpha virt. eigenvalues --    0.89068   0.90343   0.90829   0.92034   0.93621
 Alpha virt. eigenvalues --    0.94670   0.94927   0.95146   0.95552   0.96625
 Alpha virt. eigenvalues --    0.98029   0.99788   1.01094   1.02074   1.02988
 Alpha virt. eigenvalues --    1.03946   1.05109   1.05210   1.06745   1.07838
 Alpha virt. eigenvalues --    1.08974   1.10080   1.12095   1.12676   1.13696
 Alpha virt. eigenvalues --    1.14648   1.15424   1.16787   1.17635   1.19326
 Alpha virt. eigenvalues --    1.19948   1.20517   1.22251   1.23005   1.24035
 Alpha virt. eigenvalues --    1.25681   1.26158   1.26893   1.27705   1.28670
 Alpha virt. eigenvalues --    1.29708   1.30854   1.31677   1.32407   1.33198
 Alpha virt. eigenvalues --    1.34760   1.36818   1.38591   1.41135   1.41823
 Alpha virt. eigenvalues --    1.42132   1.43368   1.45123   1.45574   1.48445
 Alpha virt. eigenvalues --    1.50455   1.52238   1.53381   1.55927   1.56659
 Alpha virt. eigenvalues --    1.57285   1.57791   1.58606   1.60920   1.61708
 Alpha virt. eigenvalues --    1.62191   1.62355   1.63147   1.63763   1.64727
 Alpha virt. eigenvalues --    1.65600   1.66103   1.66598   1.67415   1.68082
 Alpha virt. eigenvalues --    1.68882   1.69035   1.69940   1.70921   1.71169
 Alpha virt. eigenvalues --    1.71598   1.72985   1.73447   1.74071   1.74714
 Alpha virt. eigenvalues --    1.75372   1.78274   1.78729   1.81488   1.81591
 Alpha virt. eigenvalues --    1.84528   1.85241   1.85709   1.87879   1.88893
 Alpha virt. eigenvalues --    1.89762   1.90836   1.91694   1.93359   1.94573
 Alpha virt. eigenvalues --    1.95202   1.96352   1.97578   1.98716   1.99186
 Alpha virt. eigenvalues --    2.00086   2.02145   2.02407   2.03517   2.05417
 Alpha virt. eigenvalues --    2.06769   2.07826   2.09317   2.10464   2.11035
 Alpha virt. eigenvalues --    2.11961   2.13453   2.14144   2.15138   2.16921
 Alpha virt. eigenvalues --    2.18861   2.19277   2.20184   2.20696   2.21778
 Alpha virt. eigenvalues --    2.22308   2.24213   2.24424   2.24921   2.27352
 Alpha virt. eigenvalues --    2.28922   2.29392   2.30171   2.30708   2.32422
 Alpha virt. eigenvalues --    2.33882   2.34237   2.35314   2.36110   2.37056
 Alpha virt. eigenvalues --    2.38396   2.38784   2.39104   2.40179   2.40831
 Alpha virt. eigenvalues --    2.41849   2.43416   2.44075   2.45236   2.45268
 Alpha virt. eigenvalues --    2.46295   2.47928   2.48982   2.49381   2.50629
 Alpha virt. eigenvalues --    2.51650   2.53185   2.53774   2.54828   2.55686
 Alpha virt. eigenvalues --    2.57070   2.57863   2.58139   2.59921   2.60876
 Alpha virt. eigenvalues --    2.61496   2.61783   2.62479   2.62786   2.64039
 Alpha virt. eigenvalues --    2.64798   2.65520   2.66550   2.67449   2.67969
 Alpha virt. eigenvalues --    2.68569   2.69029   2.70668   2.72382   2.72982
 Alpha virt. eigenvalues --    2.73648   2.74455   2.74777   2.75889   2.76191
 Alpha virt. eigenvalues --    2.77311   2.79178   2.79662   2.80748   2.81497
 Alpha virt. eigenvalues --    2.82702   2.83198   2.84574   2.84889   2.86452
 Alpha virt. eigenvalues --    2.87249   2.89300   2.90413   2.90983   2.91953
 Alpha virt. eigenvalues --    2.92507   2.94206   2.95491   2.96976   2.98468
 Alpha virt. eigenvalues --    2.99842   3.00933   3.01927   3.02891   3.05112
 Alpha virt. eigenvalues --    3.06798   3.07856   3.11125   3.12488   3.12760
 Alpha virt. eigenvalues --    3.13743   3.13858   3.14982   3.16217   3.18652
 Alpha virt. eigenvalues --    3.18931   3.19967   3.20345   3.21418   3.22071
 Alpha virt. eigenvalues --    3.23576   3.24682   3.25221   3.26177   3.26668
 Alpha virt. eigenvalues --    3.27943   3.28514   3.28847   3.29938   3.30775
 Alpha virt. eigenvalues --    3.32742   3.33377   3.34063   3.34896   3.36347
 Alpha virt. eigenvalues --    3.37773   3.38327   3.38626   3.39953   3.41037
 Alpha virt. eigenvalues --    3.41320   3.42376   3.43309   3.43922   3.44636
 Alpha virt. eigenvalues --    3.45112   3.46078   3.46620   3.48048   3.48637
 Alpha virt. eigenvalues --    3.49655   3.51498   3.52843   3.53456   3.55358
 Alpha virt. eigenvalues --    3.56677   3.57831   3.58674   3.60100   3.60903
 Alpha virt. eigenvalues --    3.61837   3.62468   3.64288   3.65288   3.66069
 Alpha virt. eigenvalues --    3.67296   3.67776   3.68713   3.71490   3.72907
 Alpha virt. eigenvalues --    3.75288   3.75598   3.77175   3.78926   3.79817
 Alpha virt. eigenvalues --    3.82504   3.83070   3.86961   3.87520   3.90247
 Alpha virt. eigenvalues --    3.92512   3.92846   3.95397   3.97698   3.98061
 Alpha virt. eigenvalues --    4.00348   4.01221   4.02339   4.03508   4.04991
 Alpha virt. eigenvalues --    4.07300   4.07573   4.08701   4.09868   4.10598
 Alpha virt. eigenvalues --    4.11028   4.13466   4.14425   4.16547   4.17781
 Alpha virt. eigenvalues --    4.18727   4.20719   4.22256   4.22883   4.26123
 Alpha virt. eigenvalues --    4.27908   4.29683   4.31227   4.33048   4.35173
 Alpha virt. eigenvalues --    4.37243   4.38185   4.38372   4.39809   4.41743
 Alpha virt. eigenvalues --    4.42536   4.43422   4.44981   4.46059   4.46737
 Alpha virt. eigenvalues --    4.49006   4.50056   4.53277   4.54014   4.56640
 Alpha virt. eigenvalues --    4.62166   4.64483   4.65858   4.69484   4.69822
 Alpha virt. eigenvalues --    4.73845   4.75338   4.78358   4.81006   4.82556
 Alpha virt. eigenvalues --    4.85449   4.88359   4.91235   4.93445   4.95569
 Alpha virt. eigenvalues --    4.96392   5.00283   5.03229   5.08637   5.09671
 Alpha virt. eigenvalues --    5.11544   5.20357   5.25894   5.26987   5.29900
 Alpha virt. eigenvalues --    5.34136   5.38289   5.46364   5.46772   5.50306
 Alpha virt. eigenvalues --    5.52895   5.61304   5.71333   5.77515   5.77877
 Alpha virt. eigenvalues --    5.84272   5.84691   6.11641   6.26621   6.29870
 Alpha virt. eigenvalues --    6.43545   6.49109   6.49652   6.69790   6.76932
 Alpha virt. eigenvalues --    6.82700   6.95664   6.99093   7.02967   7.16034
 Alpha virt. eigenvalues --    7.67243  22.52314  22.52957  22.56216  22.59263
 Alpha virt. eigenvalues --   22.61343  22.66966  22.68979  22.70654  22.79532
 Alpha virt. eigenvalues --   22.82268  22.89476  32.98873  44.17251  44.19716
  Beta  occ. eigenvalues --  -19.62039 -19.60928 -14.82260 -10.59448 -10.59408
  Beta  occ. eigenvalues --  -10.59166 -10.54277 -10.53981 -10.53910 -10.53653
  Beta  occ. eigenvalues --  -10.53356 -10.52925 -10.52274 -10.52189  -1.15639
  Beta  occ. eigenvalues --   -1.12831  -0.94913  -0.92329  -0.88574  -0.83048
  Beta  occ. eigenvalues --   -0.79901  -0.78814  -0.77748  -0.76596  -0.72735
  Beta  occ. eigenvalues --   -0.67054  -0.64633  -0.58523  -0.58220  -0.56122
  Beta  occ. eigenvalues --   -0.55315  -0.53691  -0.53441  -0.52716  -0.49449
  Beta  occ. eigenvalues --   -0.48890  -0.48022  -0.47185  -0.46275  -0.45541
  Beta  occ. eigenvalues --   -0.45527  -0.44602  -0.43414  -0.42654  -0.42513
  Beta  occ. eigenvalues --   -0.42232  -0.41196  -0.40243  -0.39497  -0.38504
  Beta  occ. eigenvalues --   -0.38209  -0.37025  -0.35310  -0.34499  -0.31366
  Beta virt. eigenvalues --   -0.00963   0.05094   0.06328   0.07747   0.07994
  Beta virt. eigenvalues --    0.09106   0.10246   0.10830   0.11544   0.11837
  Beta virt. eigenvalues --    0.12571   0.13046   0.13679   0.14372   0.15245
  Beta virt. eigenvalues --    0.15826   0.16082   0.16592   0.16912   0.17657
  Beta virt. eigenvalues --    0.18588   0.18749   0.19256   0.19394   0.19907
  Beta virt. eigenvalues --    0.20203   0.20592   0.21174   0.22729   0.23457
[...]
 1410799,0.00650037,-0.00431772,-0.02197207,-0.08350473,-0.00184743,0.0
 2375952,0.01001757,0.00308566,0.00021564,-0.00206512,0.00211534,-0.000
 36504,0.00002911,0.00569670,-0.02591577,-0.00819198,0.00281556,-0.0044
 2257,-0.00290158,-0.00040264,0.00059138,-0.00090599,-0.00371599,0.0032
 1313,-0.00395726,-0.03432222,-0.02481963,-0.09622068,0.05632156,-0.025
 79439,0.56862455,-0.00003529,0.00015215,-0.00041022,-0.00009525,0.0001
 5044,0.00012246,0.00015839,-0.00096369,0.00165307,0.00038192,-0.000195
 35,0.00024025,-0.00018037,0.00019210,0.00003819,-0.00048757,0.00032612
 ,-0.00049752,-0.00032684,-0.00009786,0.00018966,-0.00006705,-0.0000455
 1,0.00003569,0.00003066,0.00002528,0.00004823,0.00008161,0.00002747,0.
 00004984,-0.00010770,-0.00003480,-0.00013670,0.00008194,-0.00003595,-0
 .00003004,-0.00028437,0.00010776,0.00011162,0.00008430,-0.00000929,-0.
 00002074,0.00006222,0.00012559,-0.00026913,-0.00014979,0.00005527,-0.0
 0006585,0.00007505,-0.00003270,-0.00002740,-0.00006378,0.00002193,-0.0
 0002118,0.00000710,-0.00002543,-0.00002333,0.00001044,0.00003374,0.000
 03408,-0.00372139,-0.00512046,-0.00336594,-0.01723727,0.00101928,0.021
 25716,0.00095329,-0.00088654,0.00091659,-0.00162413,-0.00021365,0.0008
 0521,0.00055710,0.00024362,-0.00043093,-0.00076899,0.00407149,0.001280
 91,0.00299861,-0.00084946,-0.00128862,0.00002132,-0.00030611,-0.000201
 94,-0.00003445,0.00019863,-0.00026400,-0.03716850,-0.00652251,0.032286
 52,-0.13875503,-0.00317975,0.08616581,0.52448192,0.00021269,0.00068877
 ,0.00006381,-0.00006222,-0.00002507,-0.00010721,-0.00019169,-0.0010541
 6,0.00157860,-0.00082725,-0.00110180,-0.00078574,-0.00005737,0.0001728
 8,-0.00007739,-0.00038732,0.00032569,-0.00044789,0.00079635,0.00020615
 ,0.00002917,0.00024949,0.00020430,0.00003432,0.00004978,0.00008438,0.0
 0000776,0.00006267,-0.00002204,0.00009549,-0.00010535,-0.00003464,-0.0
 0005616,0.00009183,0.00007131,-0.00002664,-0.00023955,0.00003799,0.000
 09929,0.00000871,-0.00007247,0.00009599,-0.00017467,-0.00023292,0.0000
 5268,0.00023504,-0.00011228,-0.00002839,-0.00010615,0.00025777,0.00004
 208,0.00014267,-0.00008832,0.00002690,-0.00007790,-0.00002878,-0.00003
 917,-0.00002466,0.00008858,-0.00000906,-0.00295710,-0.00179020,-0.0028
 7303,0.02051113,0.00019184,-0.03146843,0.00024874,0.00286651,-0.000055
 67,-0.00057426,0.00001119,0.00046717,0.00004154,-0.00006758,0.00019529
 ,0.00342627,-0.00632066,-0.00229302,0.00217288,0.00359751,0.00066954,-
 0.00064684,-0.00033731,-0.00063524,-0.00028709,0.00025144,-0.00024625,
 -0.02108135,-0.00071557,0.01893946,-0.02101356,-0.07241089,0.00387880,
 0.23941206,0.22213949,-0.00007797,0.00004141,0.00040446,0.00001969,-0.
 00006885,-0.00015110,-0.00036903,0.00041591,0.00003678,-0.00012418,-0.
 00013040,0.00041074,0.00026213,-0.00010593,0.00008198,0.00001263,-0.00
 004231,0.00003807,-0.00003235,0.00019929,-0.00016368,0.00027496,0.0000
 7090,-0.00000798,-0.00001582,-0.00000987,-0.00001156,-0.00000456,-0.00
 000085,-0.00006094,0.00007303,0.00004836,0.00005431,-0.00001905,0.0000
 2267,0.00000362,0.00004473,-0.00001101,0.00000514,-0.00004720,0.000017
 14,0.00004966,-0.00014804,-0.00020887,0.00022184,0.00010871,-0.0000796
 9,0.00020419,-0.00008417,0.00012044,-0.00000760,0.00006984,-0.00006372
 ,0.00005523,0.00001581,-0.00001902,0.00003731,-0.00000598,0.00003565,-
 0.00002060,-0.00154029,-0.00127052,0.00046446,0.02058391,-0.00540624,-
 0.02018743,-0.00150591,-0.00044972,-0.00150716,-0.00015110,-0.00003389
 ,0.00017395,-0.00077860,0.00015881,0.00045696,0.00178449,-0.00456646,0
 .00048718,-0.00056452,0.00227623,0.00061990,0.00083591,-0.00040125,0.0
 0129925,0.00034976,-0.00034381,0.00063536,0.00069510,0.00021842,0.0052
 6506,0.05203034,-0.01482735,-0.17918187,-0.01282370,0.10199319,0.30560
 713,-0.00104043,0.00051518,-0.00117927,-0.00192646,0.00131953,0.001461
 80,-0.00051122,-0.00018412,0.00102415,0.00000340,0.00055684,0.00047694
 ,-0.00074729,-0.00004584,0.00015623,0.00017941,-0.00004747,0.00002292,
 -0.00011364,-0.00011368,0.00008406,-0.00004193,-0.00008008,-0.00012642
 ,0.00021033,0.00011891,0.00000519,-0.00114780,-0.00104544,-0.00031589,
 0.00012997,0.00006037,-0.00011876,0.00009141,0.00010367,-0.00003229,0.
 00001729,0.00000728,-0.00007789,0.00011215,-0.00010210,-0.00007980,0.0
 0000224,-0.00003404,-0.00007048,-0.00001589,0.00002925,0.00001026,-0.0
 0000224,-0.00000826,-0.00007462,-0.00000990,0.00003022,0.00000980,0.00
 002070,0.00004134,-0.00002092,0.00000509,-0.00008044,-0.00000391,0.005
 90852,-0.00877407,0.02380638,0.00068200,0.00071215,0.00078941,0.000424
 90,-0.00033538,-0.00028831,-0.00226329,-0.00000730,0.00195382,-0.00215
 959,-0.00044853,0.00185709,-0.00006190,0.00005599,0.00005534,0.0000539
 8,0.00012652,0.00009250,0.00032686,-0.00035438,0.00022684,-0.00015361,
 0.00003544,0.00013228,-0.06496602,0.02665585,-0.06662505,-0.01170102,0
 .00781687,-0.02462330,0.00184131,0.00065293,0.00018859,0.08319725,0.00
 068138,-0.00081219,0.00019477,0.00187503,-0.00055402,-0.00111674,0.001
 25747,0.00087135,0.00050723,0.00039825,-0.00029977,0.00000301,-0.00025
 031,0.00009765,0.00074446,-0.00009640,-0.00021494,-0.00014960,-0.00008
 074,0.00005376,-0.00004830,0.00005310,-0.00001912,0.00005736,0.0000951
 5,-0.00002526,-0.00007220,-0.00099336,-0.00051135,-0.00048450,0.000254
 24,0.00000940,-0.00019895,-0.00003186,-0.00001353,0.00006458,-0.000018
 60,0.00004141,0.00000092,0.00003309,-0.00000396,-0.00005649,-0.0000058
 7,0.00001568,0.00003718,-0.00001989,0.00000129,0.00005414,-0.00000190,
 0.00000296,0.00001455,-0.00002944,-0.00002356,-0.00000358,0.00001354,-
 0.00003005,0.00002077,-0.00000993,0.00002434,0.00000395,-0.00190490,-0
 .00136654,-0.00062383,0.00022421,0.00110439,-0.00017398,0.00014565,-0.
 00058499,-0.00036618,-0.00053931,0.00029260,0.00048436,0.00064243,-0.0
 0039652,-0.00056870,0.00003025,0.00002809,0.00013219,0.00020334,0.0000
 9136,0.00021266,-0.00024094,-0.00153221,0.00021133,0.00002033,0.000184
 72,0.00006631,0.02657268,-0.08092523,0.08449255,-0.00828388,0.00762166
 ,-0.01992012,0.00188608,0.00058462,0.00030267,-0.02772880,0.08840330,-
 0.00097975,0.00048644,0.00043726,-0.00102624,-0.00011085,0.00010225,-0
 .00157119,0.00119799,-0.00117273,0.00035160,-0.00061631,-0.00031109,-0
 .00022585,-0.00007187,0.00015786,-0.00019880,-0.00002351,0.00007787,-0
 .00005522,0.00003211,-0.00009366,-0.00002523,0.00002073,0.00005340,-0.
 00016254,-0.00011749,0.00007618,-0.00053982,-0.00010446,0.00047069,-0.
 00008780,0.00009528,0.00017548,-0.00007003,-0.00002993,0.00001183,0.00
 003809,-0.00004573,0.00010379,-0.00002034,0.00007231,0.00005050,0.0000
 0064,0.00001956,0.00006579,-0.00001556,-0.00001756,0.00003355,0.000008
 28,-0.00002656,0.00002449,0.00000267,0.00001157,-0.00000217,0.00000925
 ,-0.00001625,0.00000842,0.00001437,0.00002126,-0.00000391,-0.00100243,
 0.00513495,-0.01627758,-0.00004497,0.00071721,-0.00001321,0.00026408,-
 0.00009276,-0.00008125,0.00083166,-0.00053014,-0.00134690,0.00146622,0
 .00070446,-0.00127324,-0.00000101,0.00006270,0.00011679,0.00009102,-0.
 00002408,0.00015054,0.00003024,-0.00000696,0.00038788,-0.00001308,0.00
 011619,0.00023319,-0.06525020,0.08181010,-0.25822712,-0.00621168,0.003
 65963,-0.01388623,0.00158012,0.00039885,0.00156625,0.07194329,-0.08958
 959,0.28274851,-0.00002723,0.00006746,0.00008981,-0.00027571,-0.000306
 35,0.00029204,-0.00139726,0.00066854,0.00270987,-0.00009919,-0.0003879
 6,-0.00002415,0.00010146,0.00012049,0.00022311,-0.00085542,0.00023428,
 -0.00064280,0.00007393,0.00002254,0.00005520,0.00007508,0.00003370,-0.
 00000089,-0.00012976,-0.00007477,0.00006602,-0.00005310,0.00014220,-0.
 00038776,0.00007330,-0.00013647,-0.00014838,-0.00004283,-0.00004212,0.
 00005533,-0.00036313,-0.00005169,0.00016596,0.00008626,-0.00003906,-0.
 00009053,-0.00003998,-0.00005849,-0.00006053,0.00002279,-0.00000474,-0
 .00000957,-0.00002345,0.00007153,-0.00000186,0.00002727,-0.00001858,0.
 00001184,-0.00001030,-0.00000769,-0.00001394,-0.00000234,0.00003324,0.
 00000118,-0.00969243,0.02081469,0.00344517,-0.00432674,-0.00231465,-0.
 00072073,-0.00024448,0.00023262,-0.00015638,0.00109584,0.00008553,-0.0
 0029682,-0.00207795,0.00022051,0.00099101,-0.00000542,0.00011697,-0.00
 008577,0.00025799,-0.00144877,-0.00060586,0.00003396,-0.00000198,0.000
 09731,0.00007320,0.00002853,0.00008330,-0.08332426,0.09430356,0.013497
 63,0.00796666,-0.02619540,-0.00348815,0.00127497,0.00094928,-0.0006728
 3,-0.00349312,0.00901646,0.00145656,0.09367115,0.00017009,0.00007700,-
 0.00020311,0.00027058,-0.00000720,0.00019173,-0.00050536,0.00012951,0.
 00037572,-0.00022946,0.00010697,0.00007028,0.00021919,-0.00011489,-0.0
 0035717,-0.00004013,0.00002328,0.00002891,0.00004775,0.00000671,0.0000
 3427,0.00005982,0.00002289,-0.00002287,0.00005988,-0.00000663,0.000001
 53,-0.00001088,-0.00010816,0.00009594,-0.00008009,0.00002195,0.0000756
 4,0.00001372,0.00001324,-0.00001503,-0.00004303,-0.00001296,-0.0000306
 4,-0.00001735,-0.00000182,0.00001595,-0.00003565,-0.00000991,-0.000001
 75,0.00003692,-0.00000612,-0.00000949,-0.00001443,0.00003002,-0.000001
 57,0.00003131,-0.00001594,0.00001046,-0.00001192,0.00000702,-0.0000101
 6,-0.00000573,0.00000288,-0.00000264,-0.00318785,0.00373255,0.00167250
 ,-0.00383841,-0.00036221,-0.00074573,-0.00034261,0.00058492,-0.0001816
 4,-0.00024492,0.00175707,0.00006480,-0.00013544,0.00051200,0.00049954,
 -0.00001631,-0.00005405,-0.00012609,0.00014609,-0.00118946,-0.00051582
 ,0.00006765,0.00016013,-0.00003263,0.00002193,-0.00005021,-0.00002589,
 0.09242753,-0.27554141,-0.03401280,0.00799682,-0.02080053,-0.00265781,
 0.00042141,0.00163239,0.00032157,0.00359397,-0.01042259,-0.00153469,-0
 .09676862,0.29829431,-0.00046207,0.00018960,0.00058802,-0.00083594,0.0
 0032077,-0.00066544,0.00073437,0.00024253,-0.00190546,0.00014243,-0.00
 039321,-0.00017025,0.00000948,-0.00000685,0.00035704,0.00040127,-0.000
 28358,0.00029096,-0.00000831,0.00003582,-0.00008522,0.00001548,0.00002
 018,0.00004232,0.00002199,-0.00003740,0.00000764,0.00016960,0.00019036
 ,-0.00009769,0.00008991,0.00001940,-0.00004349,-0.00000678,0.00002178,
 0.00002888,0.00021209,0.00004616,-0.00005303,-0.00003592,0.00002662,0.
 00007005,-0.00000105,0.00001982,0.00009052,0.00000293,-0.00001973,0.00
 002862,-0.00000343,-0.00002014,0.00003606,0.00000917,-0.00000149,0.000
 00166,0.00000454,-0.00002532,0.00001495,0.00000582,0.00002572,0.000001
 96,0.00834768,-0.01704926,-0.00490182,-0.00268323,-0.00064590,-0.00021
 256,0.00012146,0.00021770,-0.00013381,-0.00027919,-0.00029151,0.001373
 39,0.00214725,-0.00038034,-0.00162366,0.00009102,0.00010675,0.00003946
 ,0.00013449,-0.00078093,-0.00013785,-0.00001914,-0.00023415,0.00021797
 ,0.00004015,0.00007230,0.00015833,0.01228696,-0.03216194,-0.05146315,0
 .00378483,-0.01496092,-0.00317348,0.00061766,0.00127027,0.00009022,-0.
 00989306,0.02728539,0.00520741,-0.01599995,0.03713207,0.05599849,-0.00
 024442,0.00011351,0.00016753,-0.00005235,-0.00007084,-0.00013941,0.000
 15822,0.00031347,-0.00013047,0.00029192,-0.00018675,-0.00002704,0.0000
 5852,-0.00011332,-0.00007683,-0.00003046,0.00000496,0.00001449,-0.0000
 2301,0.00004237,-0.00004441,-0.00006879,0.00001595,0.00003850,-0.00006
 955,-0.00003752,0.00003106,-0.00000533,0.00012301,0.00015791,-0.000059
 86,0.00002425,0.00008469,-0.00001401,-0.00001703,0.00000055,0.00000398
 ,0.00000327,0.00000897,-0.00001477,0.00002870,0.00001468,-0.00000700,-
 0.00002255,0.00001591,-0.00001925,-0.00001173,0.00002655,0.00001091,0.
 00000107,-0.00000424,-0.00003208,-0.00000120,-0.00001343,0.00001192,-0
 .00001237,0.00001646,0.00000790,-0.00001132,-0.00000341,0.00148287,-0.
 00036832,-0.00072157,-0.00384630,0.00410331,-0.00756758,0.00127475,0.0
 0218567,0.00091912,-0.00025732,-0.00011615,0.00007345,-0.00015005,0.00
 033429,0.00064874,-0.00002539,0.00021472,-0.00015566,0.00057690,0.0004
 1129,0.00035224,-0.00003042,-0.00024744,0.00012061,-0.00048783,0.00042
 897,-0.00045576,-0.01193252,0.00964921,-0.02176164,-0.10276733,0.04776
 136,-0.09108634,0.00552736,-0.01099253,0.03162622,-0.00334003,-0.00344
 106,-0.00104080,0.00141328,0.00002072,0.00089388,0.11076482,-0.0000517
 1,0.00030497,0.00017434,0.00000882,0.00001587,-0.00021451,0.00012505,-
 0.00019320,-0.00002829,-0.00045814,-0.00076412,0.00027547,-0.00007243,
 0.00002850,-0.00013498,-0.00001180,0.00006272,-0.00000877,0.00010687,0
 .00002800,0.00007905,0.00043613,0.00012412,-0.00004980,-0.00002839,0.0
 0001534,0.00002567,0.00000701,0.00007336,0.00011177,-0.00007665,-0.000
 02040,0.00003140,0.00001535,0.00002352,-0.00000507,-0.00002829,-0.0000
 0815,0.00000048,-0.00000585,-0.00002220,0.00002820,-0.00000877,-0.0000
 0166,-0.00002788,0.00006138,-0.00001107,-0.00006930,-0.00002709,0.0000
 3128,0.00005981,0.00014844,-0.00007166,0.00006922,-0.00004832,-0.00000
 010,-0.00004498,-0.00002959,0.00008764,0.00000190,0.00098832,0.0002369
 1,-0.00034601,0.01857397,-0.01595931,0.02341410,-0.00057806,-0.0048018
 9,-0.00359011,-0.00003777,-0.00001133,0.00003458,0.00037696,-0.0000667
 9,0.00031480,0.00030804,0.00119719,-0.00034293,-0.00101193,0.00078435,
 0.00034796,-0.00034702,0.00035936,-0.00010417,0.00105285,-0.00089940,0
 .00106576,-0.01048823,0.00712725,-0.01692605,0.04763753,-0.09718641,0.
 08119864,-0.00344745,0.00321439,0.00238790,-0.00330316,-0.00178589,-0.
 00154980,0.00055896,0.00132594,0.00007210,-0.05033753,0.10688171,-0.00
 012617,0.00008622,0.00005829,-0.00002649,-0.00007990,-0.00003862,-0.00
 012168,0.00015646,0.00012138,-0.00000862,-0.00012073,0.00006008,0.0001
 2190,-0.00003356,-0.00001401,-0.00004385,0.00002272,-0.00002971,-0.000
 05154,0.00004395,-0.00003730,0.00008947,0.00001298,0.00000566,-0.00003
 017,-0.00000887,0.00002341,0.00001172,0.00005098,0.00005312,-0.0000060
 0,0.00002487,0.00002794,-0.00000515,-0.00000857,-0.00000155,-0.0000163
 4,0.00000643,0.00001741,-0.00000257,0.00001406,0.00001431,-0.00000852,
 -0.00001822,-0.00000910,-0.00000365,-0.00000825,0.00000699,0.00000540,
 0.00000193,0.00000783,0.00002878,-0.00001817,0.00000504,0.00000284,-0.
 00001133,-0.00000482,-0.00000207,0.00002579,0.00000462,-0.00009476,-0.
 00058194,0.00010743,0.00359553,-0.00482787,0.00654714,0.00009994,-0.00
 168893,0.00028631,-0.00031734,-0.00003255,0.00008412,-0.00053398,-0.00
 000792,0.00017292,-0.00014299,0.00062799,0.00109826,-0.00021991,0.0004
 9947,-0.00001294,0.00020302,-0.00023322,0.00012080,0.00015017,-0.00032
 397,0.00029265,-0.00673253,0.00356115,-0.00788391,-0.08746908,0.081165
 11,-0.19270564,0.00485909,0.01086867,-0.03350022,-0.00092620,-0.001226
 91,0.00012098,0.00026906,-0.00012517,0.00018832,0.08797262,-0.08707273
 ,0.22478819,0.00010679,0.00017324,0.00005881,0.00003808,0.00000257,-0.
 00007023,-0.00008995,-0.00022535,0.00037495,-0.00029832,-0.00036224,-0
 .00002923,0.00001330,0.00002579,-0.00000201,-0.00007028,0.00006880,-0.
 00010029,0.00019397,0.00008032,0.00001083,0.00015996,0.00008018,-0.000
 01558,0.00001180,0.00002892,-0.00000599,0.00000148,-0.00001568,0.00000
 114,-0.00000491,-0.00000633,-0.00000415,0.00002422,0.00002829,-0.00000
 889,-0.00003610,0.00000032,0.00002217,-0.00000789,-0.00002182,0.000026
 83,-0.00006262,-0.00006070,0.00003300,0.00008655,-0.00003473,-0.000010
 04,-0.00004003,0.00006112,0.00001935,0.00007556,-0.00004370,0.00002333
 ,-0.00003286,0.00000255,-0.00001444,-0.00001339,0.00002487,-0.00000839
 ,-0.00011522,-0.00120802,-0.00085058,0.00083093,-0.00011284,-0.0020641
 9,-0.00022065,0.00034631,-0.00036628,-0.00031969,0.00007768,0.00021990
 ,-0.00001062,0.00002258,0.00012113,0.00101764,-0.00049219,-0.00025316,
 0.00021566,0.00149903,0.00085008,-0.00029862,0.00000479,-0.00004999,0.
 00003852,-0.00003083,0.00006875,-0.00317988,0.00073117,0.00522241,-0.0
 2381982,-0.01574990,-0.01040270,-0.33752174,-0.20945720,-0.09001053,0.
 00048856,0.00027451,0.00045446,0.00023694,-0.00007718,-0.00005636,0.00
 189471,-0.00000748,-0.00051995,0.36070794,-0.00004233,-0.00012722,-0.0
 0004483,-0.00005363,-0.00003442,0.00005696,-0.00013553,0.00008351,0.00
 012956,0.00016715,0.00014271,-0.00002742,0.00000932,-0.00000494,0.0000
 3413,-0.00003842,0.00000448,-0.00003724,-0.00009334,-0.00001386,-0.000
 02688,-0.00007273,-0.00003326,0.00001133,-0.00000806,-0.00001907,0.000
 00434,0.00000193,0.00000137,-0.00001766,0.00001049,0.00000382,-0.00000
 451,-0.00001094,-0.00002282,0.00000481,-0.00000787,0.00000430,0.000012
 85,0.00000679,0.00001476,-0.00001783,0.00002156,0.00000906,0.00000055,
 -0.00003823,0.00001069,0.00002324,0.00001967,-0.00002602,-0.00001736,-
 0.00004330,0.00001722,-0.00000460,0.00002336,0.00000721,0.00001853,0.0
 0001273,-0.00001844,-0.00000609,-0.00010181,0.00039627,-0.00054730,0.0
 0301360,0.00233749,0.00044929,-0.00008042,-0.00051974,-0.00001169,0.00
 008196,-0.00004231,-0.00005525,-0.00006515,0.00007368,-0.00003361,-0.0
 0026656,-0.00040573,0.00006020,-0.00069765,-0.00068984,-0.00084006,0.0
 0007326,0.00016181,0.00009631,0.00011394,-0.00015797,0.00000356,-0.000
 34153,0.00022425,0.00163833,0.00006790,-0.00247311,-0.00180522,-0.2265
 0389,-0.15221253,-0.08059083,0.00026077,0.00009313,-0.00005280,0.00013
 625,0.00026329,-0.00002265,0.00020757,-0.00011882,-0.00073997,0.224373
 14,0.15307106,-0.00004167,-0.00000016,-0.00001807,-0.00004740,0.000006
 79,-0.00002065,0.00018079,0.00015282,-0.00027989,0.00001555,0.00012302
 ,-0.00022014,0.00000323,-0.00001544,-0.00003167,0.00006054,-0.00003840
 ,0.00006039,0.00001223,-0.00001621,0.00000439,-0.00009197,-0.00002309,
 0.00002649,-0.00000219,-0.00000635,0.00000556,0.00001178,0.00001323,0.
 00001700,-0.00001120,0.00000361,0.00001302,-0.00000513,-0.00000410,0.0
 0000623,0.00002322,-0.00000836,-0.00002278,0.00000170,-0.00000095,-0.0
 0000903,0.00002567,0.00003145,-0.00002029,-0.00002038,0.00000911,-0.00
 002082,0.00001387,-0.00002162,0.00000662,-0.00002139,0.00002656,-0.000
 01977,-0.00000440,-0.00000791,-0.00000730,-0.00000069,-0.00000174,0.00
 000945,0.00117910,0.00063809,0.00087805,0.00115696,0.00121364,0.000442
 34,-0.00027596,-0.00015636,0.00022294,0.00014336,0.00004824,-0.0000462
 8,-0.00007715,-0.00002763,0.00010198,-0.00017664,0.00001678,-0.0001467
 6,-0.00050471,-0.00121707,-0.00014731,-0.00022860,-0.00008328,-0.00012
 875,-0.00006446,0.00007630,0.00006421,0.00287504,-0.00029079,-0.004234
 51,0.03084977,0.01830469,0.00573590,-0.13241491,-0.10165806,-0.0834689
 2,0.00015926,-0.00029070,0.00030821,-0.00010349,0.00002179,-0.00016534
 ,0.00004445,0.00082225,0.00002463,0.09733583,0.08235983,0.08108084\\-0
 .00000848,-0.00001334,0.00001272,0.00000461,-0.00002383,0.00000593,-0.
 00000052,0.00002384,-0.00000692,-0.00001343,-0.00000552,-0.00000126,0.
 00000007,0.00000648,0.00000146,-0.00000054,0.00000172,-0.00000028,0.00
 000414,-0.00000241,0.00000153,0.00000139,-0.00000352,0.00000693,0.0000
 0375,-0.00000234,-0.00000212,0.00000277,0.00000110,-0.00000408,-0.0000
 0047,0.00000079,0.00000071,0.00000533,-0.00000124,-0.00000254,-0.00000
 350,0.00000011,0.00000231,-0.00000258,0.00000245,0.00000009,0.00000322
 ,0.00000873,-0.00000297,-0.00000404,-0.00000489,0.00000112,-0.00000073
 ,0.00000264,-0.00000611,-0.00000350,-0.00000221,0.00000120,0.00000032,
 -0.00000009,0.00000065,-0.00000246,0.00000360,0.00000123,0.00000632,-0
 .00000840,0.00000072,0.00000216,-0.00000751,-0.00000207,0.00000383,-0.
 00000002,-0.00000167,-0.00000210,0.00000012,-0.00000188,0.00000050,-0.
 00000415,-0.00000297,-0.00000304,0.00000131,0.00000474,0.00000144,0.00
 000424,-0.00000056,-0.00000016,-0.00000052,0.00000006,-0.00000125,0.00
 000040,0.00000046,-0.00000498,-0.00000132,0.00000863,-0.00000373,0.000
 01341,-0.00001457,0.00000003,0.00000339,0.00000527,0.00000477,0.000002
 34,0.00000058,0.00000305,-0.00000129,-0.00000162,0.00000194,0.00000339
 ,-0.00000369,0.00000585,0.00000256,-0.00000104\\\@
 The archive entry for this job was punched.


 IT IS BY LOGIC THAT WE PROVE, BUT BY INTUITION THAT WE DISCOVER.
     -- J.H.POINCARE (1854-1912)
 Job cpu time:       1 days 18 hours 20 minutes 34.3 seconds.
 Elapsed time:       0 days  2 hours  7 minutes  2.6 seconds.
 File lengths (MBytes):  RWF=   1791 Int=      0 D2E=      0 Chk=     38 Scr=      1
 Normal termination of Gaussian 16 at Thu Jan  9 15:45:17 2025.
