 Entering Gaussian System, Link 0=g16
 Input=gjfs/data_set_3-catalyst-Mix_1_opt.gjf
 Output=gjfs/data_set_3-catalyst-Mix_1_opt.log
 Initial command:
 /usr/local/intel/g16/l1.exe "/scr/Gau-1195251.inp" -scrdir="/scr/"
 Entering Link 1 = /usr/local/intel/g16/l1.exe PID=   1195253.
  
 Copyright (c) 1988-2019, Gaussian, Inc.  All Rights Reserved.
  
 This is part of the Gaussian(R) 16 program.  It is based on
 the Gaussian(R) 09 system (copyright 2009, Gaussian, Inc.),
 the Gaussian(R) 03 system (copyright 2003, Gaussian, Inc.),
 the Gaussian(R) 98 system (copyright 1998, Gaussian, Inc.),
 the Gaussian(R) 94 system (copyright 1995, Gaussian, Inc.),
 the Gaussian 92(TM) system (copyright 1992, Gaussian, Inc.),
 the Gaussian 90(TM) system (copyright 1990, Gaussian, Inc.),
 the Gaussian 88(TM) system (copyright 1988, Gaussian, Inc.),
 the Gaussian 86(TM) system (copyright 1986, Carnegie Mellon
 University), and the Gaussian 82(TM) system (copyright 1983,
 Carnegie Mellon University). Gaussian is a federally registered
 trademark of Gaussian, Inc.
  
 This software contains proprietary and confidential information,
 including trade secrets, belonging to Gaussian, Inc.
  
 This software is provided under written license and may be
 used, copied, transmitted, or stored only in accord with that
 written license.
  
 The following legend is applicable only to US Government
 contracts under FAR:
  
                    RESTRICTED RIGHTS LEGEND
  
 Use, reproduction and disclosure by the US Government is
 subject to restrictions as set forth in subparagraphs (a)
 and (c) of the Commercial Computer Software - Restricted
 Rights clause in FAR 52.227-19.
  
 Gaussian, Inc.
 340 Quinnipiac St., Bldg. 40, Wallingford CT 06492
  
  
 ---------------------------------------------------------------
 Warning -- This program may not be used in any manner that
 competes with the business of Gaussian, Inc. or will provide
 assistance to any competitor of Gaussian, Inc.  The licensee
 of this program is prohibited from giving any competitor of
 Gaussian, Inc. access to this program.  By using this program,
 the user acknowledges that Gaussian, Inc. is engaged in the
 business of creating and licensing software in the field of
 computational chemistry and represents and warrants to the
 licensee that it is not a competitor of Gaussian, Inc. and that
 it will not use this program in any manner prohibited above.
 ---------------------------------------------------------------
  

 Cite this work as:
 Gaussian 16, Revision C.01,
 M. J. Frisch, G. W. Trucks, H. B. Schlegel, G. E. Scuseria, 
 M. A. Robb, J. R. Cheeseman, G. Scalmani, V. Barone, 
 G. A. Petersson, H. Nakatsuji, X. Li, M. Caricato, A. V. Marenich, 
 J. Bloino, B. G. Janesko, R. Gomperts, B. Mennucci, H. P. Hratchian, 
 J. V. Ortiz, A. F. Izmaylov, J. L. Sonnenberg, D. Williams-Young, 
 F. Ding, F. Lipparini, F. Egidi, J. Goings, B. Peng, A. Petrone, 
 T. Henderson, D. Ranasinghe, V. G. Zakrzewski, J. Gao, N. Rega, 
 G. Zheng, W. Liang, M. Hada, M. Ehara, K. Toyota, R. Fukuda, 
 J. Hasegawa, M. Ishida, T. Nakajima, Y. Honda, O. Kitao, H. Nakai, 
 T. Vreven, K. Throssell, J. A. Montgomery, Jr., J. E. Peralta, 
 F. Ogliaro, M. J. Bearpark, J. J. Heyd, E. N. Brothers, K. N. Kudin, 
 V. N. Staroverov, T. A. Keith, R. Kobayashi, J. Normand, 
 K. Raghavachari, A. P. Rendell, J. C. Burant, S. S. Iyengar, 
 J. Tomasi, M. Cossi, J. M. Millam, M. Klene, C. Adamo, R. Cammi, 
 J. W. Ochterski, R. L. Martin, K. Morokuma, O. Farkas, 
 J. B. Foresman, and D. J. Fox, Gaussian, Inc., Wallingford CT, 2019.
 
 ******************************************
 Gaussian 16:  ES64L-G16RevC.01  3-Jul-2019
                 9-Jan-2025 
 ******************************************
 %nprocshared=20
 Will use up to   20 processors via shared memory.
 %mem=30GB
 %chk=outputs/data_set_3-catalyst-Mix_1_opt.chk
 ----------------------------------
 #p M062X/DEF2TZVP opt freq pop=NBO
 ----------------------------------
 1/18=20,19=15,26=3,38=1/1,3;
 2/9=110,12=2,17=6,18=5,40=1/2;
 3/5=44,7=101,11=2,25=1,30=1,71=1,74=-55/1,2,3;
 4//1;
 5/5=2,38=5/2;
 6/7=2,8=2,9=2,10=2,28=1,40=1/1,7;
 7//1,2,3,16;
 1/18=20,19=15,26=3/3(2);
 2/9=110/2;
 99//99;
 2/9=110/2;
 3/5=44,7=101,11=2,25=1,30=1,71=1,74=-55/1,2,3;
 4/5=5,16=3,69=1/1;
 5/5=2,38=5/2;
 7//1,2,3,16;
 1/18=20,19=15,26=3/3(-5);
 2/9=110/2;
 6/7=2,8=2,9=2,10=2,19=2,28=1,40=1/1,7;
 99/9=1/99;
 Leave Link    1 at Thu Jan  9 20:07:01 2025, MaxMem=  4026531840 cpu:               0.9 elap:               0.1
 (Enter /usr/local/intel/g16/l101.exe)
 -----------------------------
 data_set_3-catalyst-Mix_1_opt
 -----------------------------
 Symbolic Z-matrix:
 Charge =  0 Multiplicity = 2
 O                    -0.00005  -1.49927  -0.00023 
 N                    -0.00004  -0.18151  -0.00002 
 C                    -1.2613    0.52595  -0.34043 
 C                    -1.25316   1.91796   0.33191 
 C                     0.        2.76236   0.00004 
 C                     1.25313   1.9179   -0.33184 
 C                     1.26126   0.52588   0.3405 
 C                     1.42904   0.59738   1.86797 
 C                     2.37373  -0.30621  -0.33615 
 O                     2.52991  -0.37036  -1.55981 
 O                     3.18429  -0.94416   0.54841 
 C                     4.21333  -1.82165  -0.01168 
 H                    -1.33326   1.76397   1.41149 
 H                    -2.15707   2.45184   0.02078 
 H                     0.20342   3.41701   0.85345 
 H                    -0.2034    3.41699  -0.8534 
 H                     2.15707   2.45176  -0.02076 
 H                     1.33316   1.76388  -1.41143 
 H                     1.368    -0.40298   2.29955 
 H                     0.64129   1.21605   2.30594 
 H                     2.40154   1.02741   2.12306 
 H                     4.89369  -1.24802  -0.64562 
 H                     3.74146  -2.60945  -0.60268 
 H                     4.73177  -2.2344    0.85115 
 C                    -1.42914   0.59758  -1.86789 
 C                    -2.37374  -0.30619   0.33618 
 O                    -2.52985  -0.3705    1.55984 
 O                    -3.18436  -0.94404  -0.54843 
 C                    -4.21312  -1.82186   0.01165 
 H                    -2.40168   1.02756  -2.1229 
 H                    -1.36799  -0.40274  -2.29955 
 H                    -0.64142   1.21638  -2.30578 
 H                    -3.74111  -2.60883   0.60365 
 H                    -4.73066  -2.23568  -0.85119 
 H                    -4.89434  -1.24818   0.64463 
 
 ITRead=  0  0  0  0  0  0  0  0  0  0  0  0  0  0  0  0  0  0  0  0
 ITRead=  0  0  0  0  0  0  0  0  0  0  0  0  0  0  0
 MicOpt= -1 -1 -1 -1 -1 -1 -1 -1 -1 -1 -1 -1 -1 -1 -1 -1 -1 -1 -1 -1
 MicOpt= -1 -1 -1 -1 -1 -1 -1 -1 -1 -1 -1 -1 -1 -1 -1
 NAtoms=     35 NQM=       35 NQMF=       0 NMMI=      0 NMMIF=      0
                NMic=       0 NMicF=      0.
                    Isotopes and Nuclear Properties:
 (Nuclear quadrupole moments (NQMom) in fm**2, nuclear magnetic moments (NMagM)
  in nuclear magnetons)

  Atom         1           2           3           4           5           6           7           8           9          10
 IAtWgt=          16          14          12          12          12          12          12          12          12          16
 AtmWgt=  15.9949146  14.0030740  12.0000000  12.0000000  12.0000000  12.0000000  12.0000000  12.0000000  12.0000000  15.9949146
 NucSpn=           0           2           0           0           0           0           0           0           0           0
 AtZEff=  -0.0000000  -0.0000000  -0.0000000  -0.0000000  -0.0000000  -0.0000000  -0.0000000  -0.0000000  -0.0000000  -0.0000000
 NQMom=    0.0000000   2.0440000   0.0000000   0.0000000   0.0000000   0.0000000   0.0000000   0.0000000   0.0000000   0.0000000
 NMagM=    0.0000000   0.4037610   0.0000000   0.0000000   0.0000000   0.0000000   0.0000000   0.0000000   0.0000000   0.0000000
 AtZNuc=   8.0000000   7.0000000   6.0000000   6.0000000   6.0000000   6.0000000   6.0000000   6.0000000   6.0000000   8.0000000

  Atom        11          12          13          14          15          16          17          18          19          20
 IAtWgt=          16          12           1           1           1           1           1           1           1           1
 AtmWgt=  15.9949146  12.0000000   1.0078250   1.0078250   1.0078250   1.0078250   1.0078250   1.0078250   1.0078250   1.0078250
 NucSpn=           0           0           1           1           1           1           1           1           1           1
 AtZEff=  -0.0000000  -0.0000000  -0.0000000  -0.0000000  -0.0000000  -0.0000000  -0.0000000  -0.0000000  -0.0000000  -0.0000000
 NQMom=    0.0000000   0.0000000   0.0000000   0.0000000   0.0000000   0.0000000   0.0000000   0.0000000   0.0000000   0.0000000
 NMagM=    0.0000000   0.0000000   2.7928460   2.7928460   2.7928460   2.7928460   2.7928460   2.7928460   2.7928460   2.7928460
 AtZNuc=   8.0000000   6.0000000   1.0000000   1.0000000   1.0000000   1.0000000   1.0000000   1.0000000   1.0000000   1.0000000

  Atom        21          22          23          24          25          26          27          28          29          30
 IAtWgt=           1           1           1           1          12          12          16          16          12           1
 AtmWgt=   1.0078250   1.0078250   1.0078250   1.0078250  12.0000000  12.0000000  15.9949146  15.9949146  12.0000000   1.0078250
 NucSpn=           1           1           1           1           0           0           0           0           0           1
 AtZEff=  -0.0000000  -0.0000000  -0.0000000  -0.0000000  -0.0000000  -0.0000000  -0.0000000  -0.0000000  -0.0000000  -0.0000000
 NQMom=    0.0000000   0.0000000   0.0000000   0.0000000   0.0000000   0.0000000   0.0000000   0.0000000   0.0000000   0.0000000
 NMagM=    2.7928460   2.7928460   2.7928460   2.7928460   0.0000000   0.0000000   0.0000000   0.0000000   0.0000000   2.7928460
 AtZNuc=   1.0000000   1.0000000   1.0000000   1.0000000   6.0000000   6.0000000   8.0000000   8.0000000   6.0000000   1.0000000

  Atom        31          32          33          34          35
 IAtWgt=           1           1           1           1           1
 AtmWgt=   1.0078250   1.0078250   1.0078250   1.0078250   1.0078250
 NucSpn=           1           1           1           1           1
 AtZEff=  -0.0000000  -0.0000000  -0.0000000  -0.0000000  -0.0000000
 NQMom=    0.0000000   0.0000000   0.0000000   0.0000000   0.0000000
 NMagM=    2.7928460   2.7928460   2.7928460   2.7928460   2.7928460
 AtZNuc=   1.0000000   1.0000000   1.0000000   1.0000000   1.0000000
 Leave Link  101 at Thu Jan  9 20:07:02 2025, MaxMem=  4026531840 cpu:              21.1 elap:               1.1
 (Enter /usr/local/intel/g16/l103.exe)

 GradGradGradGradGradGradGradGradGradGradGradGradGradGradGradGradGradGrad
 Berny optimization.
 Initialization pass.
                           ----------------------------
                           !    Initial Parameters    !
                           ! (Angstroms and Degrees)  !
 --------------------------                            --------------------------
 ! Name  Definition              Value          Derivative Info.                !
 --------------------------------------------------------------------------------
 ! R1    R(1,2)                  1.3178         estimate D2E/DX2                !
 ! R2    R(2,3)                  1.4856         estimate D2E/DX2                !
 ! R3    R(2,7)                  1.4857         estimate D2E/DX2                !
 ! R4    R(3,4)                  1.5459         estimate D2E/DX2                !
 ! R5    R(3,25)                 1.5383         estimate D2E/DX2                !
 ! R6    R(3,26)                 1.5452         estimate D2E/DX2                !
 ! R7    R(4,5)                  1.5471         estimate D2E/DX2                !
 ! R8    R(4,13)                 1.0934         estimate D2E/DX2                !
 ! R9    R(4,14)                 1.0949         estimate D2E/DX2                !
 ! R10   R(5,6)                  1.5471         estimate D2E/DX2                !
 ! R11   R(5,15)                 1.0946         estimate D2E/DX2                !
 ! R12   R(5,16)                 1.0947         estimate D2E/DX2                !
 ! R13   R(6,7)                  1.5459         estimate D2E/DX2                !
 ! R14   R(6,17)                 1.0949         estimate D2E/DX2                !
 ! R15   R(6,18)                 1.0934         estimate D2E/DX2                !
 ! R16   R(7,8)                  1.5383         estimate D2E/DX2                !
 ! R17   R(7,9)                  1.5453         estimate D2E/DX2                !
 ! R18   R(8,19)                 1.0912         estimate D2E/DX2                !
 ! R19   R(8,20)                 1.0932         estimate D2E/DX2                !
 ! R20   R(8,21)                 1.0935         estimate D2E/DX2                !
 ! R21   R(9,10)                 1.2353         estimate D2E/DX2                !
 ! R22   R(9,11)                 1.3588         estimate D2E/DX2                !
 ! R23   R(11,12)                1.4638         estimate D2E/DX2                !
 ! R24   R(12,22)                1.0926         estimate D2E/DX2                !
 ! R25   R(12,23)                1.0921         estimate D2E/DX2                !
 ! R26   R(12,24)                1.0879         estimate D2E/DX2                !
 ! R27   R(25,30)                1.0935         estimate D2E/DX2                !
 ! R28   R(25,31)                1.0912         estimate D2E/DX2                !
 ! R29   R(25,32)                1.0932         estimate D2E/DX2                !
 ! R30   R(26,27)                1.2353         estimate D2E/DX2                !
 ! R31   R(26,28)                1.3589         estimate D2E/DX2                !
 ! R32   R(28,29)                1.4638         estimate D2E/DX2                !
 ! R33   R(29,33)                1.0921         estimate D2E/DX2                !
 ! R34   R(29,34)                1.0879         estimate D2E/DX2                !
 ! R35   R(29,35)                1.0926         estimate D2E/DX2                !
 ! A1    A(1,2,3)              118.4344         estimate D2E/DX2                !
 ! A2    A(1,2,7)              118.4361         estimate D2E/DX2                !
 ! A3    A(3,2,7)              123.1296         estimate D2E/DX2                !
 ! A4    A(2,3,4)              108.9453         estimate D2E/DX2                !
 ! A5    A(2,3,25)             110.018          estimate D2E/DX2                !
 ! A6    A(2,3,26)             104.7391         estimate D2E/DX2                !
 ! A7    A(4,3,25)             112.9848         estimate D2E/DX2                !
 ! A8    A(4,3,26)             107.3534         estimate D2E/DX2                !
 ! A9    A(25,3,26)            112.4145         estimate D2E/DX2                !
 ! A10   A(3,4,5)              113.7301         estimate D2E/DX2                !
 ! A11   A(3,4,13)             107.5898         estimate D2E/DX2                !
 ! A12   A(3,4,14)             108.1265         estimate D2E/DX2                !
 ! A13   A(5,4,13)             110.3648         estimate D2E/DX2                !
 ! A14   A(5,4,14)             109.9751         estimate D2E/DX2                !
 ! A15   A(13,4,14)            106.7829         estimate D2E/DX2                !
 ! A16   A(4,5,6)              113.8402         estimate D2E/DX2                !
 ! A17   A(4,5,15)             108.0406         estimate D2E/DX2                !
 ! A18   A(4,5,16)             110.0677         estimate D2E/DX2                !
 ! A19   A(6,5,15)             110.0689         estimate D2E/DX2                !
 ! A20   A(6,5,16)             108.04           estimate D2E/DX2                !
 ! A21   A(15,5,16)            106.5412         estimate D2E/DX2                !
 ! A22   A(5,6,7)              113.7317         estimate D2E/DX2                !
 ! A23   A(5,6,17)             109.9746         estimate D2E/DX2                !
 ! A24   A(5,6,18)             110.3628         estimate D2E/DX2                !
 ! A25   A(7,6,17)             108.1276         estimate D2E/DX2                !
 ! A26   A(7,6,18)             107.5887         estimate D2E/DX2                !
 ! A27   A(17,6,18)            106.7839         estimate D2E/DX2                !
 ! A28   A(2,7,6)              108.941          estimate D2E/DX2                !
 ! A29   A(2,7,8)              110.0176         estimate D2E/DX2                !
 ! A30   A(2,7,9)              104.7408         estimate D2E/DX2                !
 ! A31   A(6,7,8)              112.9899         estimate D2E/DX2                !
 ! A32   A(6,7,9)              107.3507         estimate D2E/DX2                !
 ! A33   A(8,7,9)              112.4146         estimate D2E/DX2                !
 ! A34   A(7,8,19)             110.1208         estimate D2E/DX2                !
 ! A35   A(7,8,20)             110.213          estimate D2E/DX2                !
 ! A36   A(7,8,21)             110.2985         estimate D2E/DX2                !
 ! A37   A(19,8,20)            108.6656         estimate D2E/DX2                !
 ! A38   A(19,8,21)            108.5426         estimate D2E/DX2                !
 ! A39   A(20,8,21)            108.956          estimate D2E/DX2                !
 ! A40   A(7,9,10)             123.557          estimate D2E/DX2                !
 ! A41   A(7,9,11)             113.4034         estimate D2E/DX2                !
 ! A42   A(10,9,11)            123.0284         estimate D2E/DX2                !
 ! A43   A(9,11,12)            116.854          estimate D2E/DX2                !
 ! A44   A(11,12,22)           110.1832         estimate D2E/DX2                !
 ! A45   A(11,12,23)           109.6191         estimate D2E/DX2                !
 ! A46   A(11,12,24)           105.01           estimate D2E/DX2                !
 ! A47   A(22,12,23)           109.4994         estimate D2E/DX2                !
 ! A48   A(22,12,24)           111.26           estimate D2E/DX2                !
 ! A49   A(23,12,24)           111.1878         estimate D2E/DX2                !
 ! A50   A(3,25,30)            110.2979         estimate D2E/DX2                !
 ! A51   A(3,25,31)            110.1198         estimate D2E/DX2                !
 ! A52   A(3,25,32)            110.21           estimate D2E/DX2                !
 ! A53   A(30,25,31)           108.5449         estimate D2E/DX2                !
 ! A54   A(30,25,32)           108.9574         estimate D2E/DX2                !
 ! A55   A(31,25,32)           108.6668         estimate D2E/DX2                !
 ! A56   A(3,26,27)            123.5573         estimate D2E/DX2                !
 ! A57   A(3,26,28)            113.4029         estimate D2E/DX2                !
 ! A58   A(27,26,28)           123.0287         estimate D2E/DX2                !
 ! A59   A(26,28,29)           116.8508         estimate D2E/DX2                !
 ! A60   A(28,29,33)           109.6226         estimate D2E/DX2                !
 ! A61   A(28,29,34)           105.0095         estimate D2E/DX2                !
 ! A62   A(28,29,35)           110.1809         estimate D2E/DX2                !
 ! A63   A(33,29,34)           111.1886         estimate D2E/DX2                !
 ! A64   A(33,29,35)           109.4995         estimate D2E/DX2                !
 ! A65   A(34,29,35)           111.2583         estimate D2E/DX2                !
 ! D1    D(1,2,3,4)            153.747          estimate D2E/DX2                !
 ! D2    D(1,2,3,25)           -81.8884         estimate D2E/DX2                !
 ! D3    D(1,2,3,26)            39.1408         estimate D2E/DX2                !
 ! D4    D(7,2,3,4)            -26.2587         estimate D2E/DX2                !
 ! D5    D(7,2,3,25)            98.1058         estimate D2E/DX2                !
 ! D6    D(7,2,3,26)          -140.8649         estimate D2E/DX2                !
 ! D7    D(1,2,7,6)            153.7283         estimate D2E/DX2                !
 ! D8    D(1,2,7,8)            -81.9039         estimate D2E/DX2                !
 ! D9    D(1,2,7,9)             39.1262         estimate D2E/DX2                !
 ! D10   D(3,2,7,6)            -26.2659         estimate D2E/DX2                !
 ! D11   D(3,2,7,8)             98.1018         estimate D2E/DX2                !
 ! D12   D(3,2,7,9)           -140.868          estimate D2E/DX2                !
 ! D13   D(2,3,4,5)             53.9736         estimate D2E/DX2                !
 ! D14   D(2,3,4,13)           -68.5837         estimate D2E/DX2                !
 ! D15   D(2,3,4,14)           176.4232         estimate D2E/DX2                !
 ! D16   D(25,3,4,5)           -68.6236         estimate D2E/DX2                !
 ! D17   D(25,3,4,13)          168.8191         estimate D2E/DX2                !
 ! D18   D(25,3,4,14)           53.826          estimate D2E/DX2                !
 ! D19   D(26,3,4,5)           166.871          estimate D2E/DX2                !
 ! D20   D(26,3,4,13)           44.3136         estimate D2E/DX2                !
 ! D21   D(26,3,4,14)          -70.6794         estimate D2E/DX2                !
 ! D22   D(2,3,25,30)          174.3664         estimate D2E/DX2                !
 ! D23   D(2,3,25,31)           54.5883         estimate D2E/DX2                !
 ! D24   D(2,3,25,32)          -65.2851         estimate D2E/DX2                !
 ! D25   D(4,3,25,30)          -63.6367         estimate D2E/DX2                !
 ! D26   D(4,3,25,31)          176.5852         estimate D2E/DX2                !
 ! D27   D(4,3,25,32)           56.7117         estimate D2E/DX2                !
 ! D28   D(26,3,25,30)          58.0596         estimate D2E/DX2                !
 ! D29   D(26,3,25,31)         -61.7185         estimate D2E/DX2                !
 ! D30   D(26,3,25,32)         178.408          estimate D2E/DX2                !
 ! D31   D(2,3,26,27)           69.2811         estimate D2E/DX2                !
 ! D32   D(2,3,26,28)         -111.8993         estimate D2E/DX2                !
 ! D33   D(4,3,26,27)          -46.4361         estimate D2E/DX2                !
 ! D34   D(4,3,26,28)          132.3835         estimate D2E/DX2                !
 ! D35   D(25,3,26,27)        -171.2863         estimate D2E/DX2                !
 ! D36   D(25,3,26,28)           7.5333         estimate D2E/DX2                !
 ! D37   D(3,4,5,6)            -27.4334         estimate D2E/DX2                !
 ! D38   D(3,4,5,15)          -150.0138         estimate D2E/DX2                !
 ! D39   D(3,4,5,16)            94.025          estimate D2E/DX2                !
 ! D40   D(13,4,5,6)            93.5839         estimate D2E/DX2                !
 ! D41   D(13,4,5,15)          -28.9965         estimate D2E/DX2                !
 ! D42   D(13,4,5,16)         -144.9577         estimate D2E/DX2                !
 ! D43   D(14,4,5,6)          -148.8588         estimate D2E/DX2                !
 ! D44   D(14,4,5,15)           88.5608         estimate D2E/DX2                !
 ! D45   D(14,4,5,16)          -27.4004         estimate D2E/DX2                !
 ! D46   D(4,5,6,7)            -27.4346         estimate D2E/DX2                !
 ! D47   D(4,5,6,17)          -148.8621         estimate D2E/DX2                !
 ! D48   D(4,5,6,18)            93.581          estimate D2E/DX2                !
 ! D49   D(15,5,6,7)            94.0255         estimate D2E/DX2                !
 ! D50   D(15,5,6,17)          -27.402          estimate D2E/DX2                !
 ! D51   D(15,5,6,18)         -144.9589         estimate D2E/DX2                !
 ! D52   D(16,5,6,7)          -150.0131         estimate D2E/DX2                !
 ! D53   D(16,5,6,17)           88.5594         estimate D2E/DX2                !
 ! D54   D(16,5,6,18)          -28.9975         estimate D2E/DX2                !
 ! D55   D(5,6,7,2)             53.977          estimate D2E/DX2                !
 ! D56   D(5,6,7,8)            -68.6201         estimate D2E/DX2                !
 ! D57   D(5,6,7,9)            166.8729         estimate D2E/DX2                !
 ! D58   D(17,6,7,2)           176.4278         estimate D2E/DX2                !
 ! D59   D(17,6,7,8)            53.8307         estimate D2E/DX2                !
 ! D60   D(17,6,7,9)           -70.6763         estimate D2E/DX2                !
 ! D61   D(18,6,7,2)           -68.5781         estimate D2E/DX2                !
 ! D62   D(18,6,7,8)           168.8249         estimate D2E/DX2                !
 ! D63   D(18,6,7,9)            44.3178         estimate D2E/DX2                !
 ! D64   D(2,7,8,19)            54.5971         estimate D2E/DX2                !
 ! D65   D(2,7,8,20)           -65.2776         estimate D2E/DX2                !
 ! D66   D(2,7,8,21)           174.3734         estimate D2E/DX2                !
 ! D67   D(6,7,8,19)           176.5917         estimate D2E/DX2                !
 ! D68   D(6,7,8,20)            56.717          estimate D2E/DX2                !
 ! D69   D(6,7,8,21)           -63.632          estimate D2E/DX2                !
 ! D70   D(9,7,8,19)           -61.7117         estimate D2E/DX2                !
 ! D71   D(9,7,8,20)           178.4136         estimate D2E/DX2                !
 ! D72   D(9,7,8,21)            58.0646         estimate D2E/DX2                !
 ! D73   D(2,7,9,10)            69.2836         estimate D2E/DX2                !
 ! D74   D(2,7,9,11)          -111.8989         estimate D2E/DX2                !
 ! D75   D(6,7,9,10)           -46.4284         estimate D2E/DX2                !
 ! D76   D(6,7,9,11)           132.3892         estimate D2E/DX2                !
 ! D77   D(8,7,9,10)          -171.2832         estimate D2E/DX2                !
 ! D78   D(8,7,9,11)             7.5344         estimate D2E/DX2                !
 ! D79   D(7,9,11,12)          176.2885         estimate D2E/DX2                !
 ! D80   D(10,9,11,12)          -4.8868         estimate D2E/DX2                !
 ! D81   D(9,11,12,22)          60.7946         estimate D2E/DX2                !
 ! D82   D(9,11,12,23)         -59.7751         estimate D2E/DX2                !
 ! D83   D(9,11,12,24)        -179.3022         estimate D2E/DX2                !
 ! D84   D(3,26,28,29)         176.2713         estimate D2E/DX2                !
 ! D85   D(27,26,28,29)         -4.902          estimate D2E/DX2                !
 ! D86   D(26,28,29,33)        -59.6873         estimate D2E/DX2                !
 ! D87   D(26,28,29,34)       -179.217          estimate D2E/DX2                !
 ! D88   D(26,28,29,35)         60.8833         estimate D2E/DX2                !
 --------------------------------------------------------------------------------
 Trust Radius=3.00D-01 FncErr=1.00D-07 GrdErr=1.00D-06 EigMax=2.50D+02 EigMin=1.00D-04
 Number of steps in this run=    198 maximum allowed number of steps=    210.
 GradGradGradGradGradGradGradGradGradGradGradGradGradGradGradGradGradGrad

 Leave Link  103 at Thu Jan  9 20:07:02 2025, MaxMem=  4026531840 cpu:               0.3 elap:               0.0
 (Enter /usr/local/intel/g16/l202.exe)
                          Input orientation:                          
 ---------------------------------------------------------------------
 Center     Atomic      Atomic             Coordinates (Angstroms)
 Number     Number       Type             X           Y           Z
 ---------------------------------------------------------------------
      1          8           0       -0.000047   -1.499273   -0.000228
      2          7           0       -0.000041   -0.181506   -0.000018
      3          6           0       -1.261298    0.525945   -0.340426
      4          6           0       -1.253157    1.917962    0.331914
      5          6           0        0.000001    2.762359    0.000038
      6          6           0        1.253131    1.917898   -0.331844
      7          6           0        1.261260    0.525879    0.340496
      8          6           0        1.429041    0.597382    1.867973
      9          6           0        2.373729   -0.306210   -0.336148
     10          8           0        2.529910   -0.370364   -1.559814
     11          8           0        3.184285   -0.944155    0.548405
     12          6           0        4.213328   -1.821654   -0.011675
     13          1           0       -1.333258    1.763966    1.411491
     14          1           0       -2.157072    2.451837    0.020781
     15          1           0        0.203423    3.417008    0.853450
     16          1           0       -0.203402    3.416994   -0.853395
     17          1           0        2.157065    2.451761   -0.020760
     18          1           0        1.333164    1.763879   -1.411427
     19          1           0        1.367996   -0.402983    2.299546
     20          1           0        0.641288    1.216045    2.305942
     21          1           0        2.401540    1.027408    2.123064
     22          1           0        4.893687   -1.248019   -0.645621
     23          1           0        3.741456   -2.609452   -0.602678
     24          1           0        4.731766   -2.234404    0.851146
     25          6           0       -1.429135    0.597584   -1.867892
     26          6           0       -2.373738   -0.306186    0.336177
     27          8           0       -2.529845   -0.370496    1.559835
     28          8           0       -3.184358   -0.944036   -0.548434
     29          6           0       -4.213115   -1.821859    0.011653
     30          1           0       -2.401676    1.027558   -2.122897
     31          1           0       -1.367991   -0.402738   -2.299549
     32          1           0       -0.641422    1.216375   -2.305776
     33          1           0       -3.741112   -2.608833    0.603649
     34          1           0       -4.730660   -2.235678   -0.851191
     35          1           0       -4.894343   -1.248182    0.644631
 ---------------------------------------------------------------------
                    Distance matrix (angstroms):
                    1          2          3          4          5
     1  O    0.000000
     2  N    1.317767   0.000000
     3  C    2.409979   1.485643   0.000000
     4  C    3.654873   2.467437   1.545904   0.000000
     5  C    4.261632   2.943865   2.590046   1.547111   0.000000
     6  C    3.654789   2.467397   2.874015   2.592692   1.547125
     7  C    2.410027   1.485673   2.612844   2.874067   2.590083
     8  C    3.150941   2.477566   3.481387   3.361190   3.196633
     9  C    2.677882   2.400691   3.729064   4.306687   3.894062
    10  O    3.179218   2.978134   4.082099   4.809019   4.318279
    11  O    3.278586   3.319990   4.765965   5.284834   4.917176
    12  C    4.225706   4.521360   5.965805   6.632137   6.226190
    13  H    3.797253   2.748579   2.146413   1.093443   2.183247
    14  H    4.501607   3.404073   2.154517   1.094938   2.179408
    15  H    4.993995   3.703931   3.453837   2.154243   1.094650
    16  H    4.993889   3.703891   3.120969   2.180376   1.094654
    17  H    4.501580   3.404061   3.936516   3.469717   2.179410
    18  H    3.796985   2.748460   3.067696   3.122825   2.183236
    19  H    2.891773   2.684878   3.839993   4.016068   4.144700
    20  H    3.619763   2.771625   3.331566   2.824605   2.849479
    21  H    4.081679   3.425864   4.442593   4.166307   3.644816
    22  H    4.942499   5.050032   6.412794   6.983030   6.359888
    23  H    3.948960   4.500769   5.909910   6.805667   6.574048
    24  H    4.863672   5.227702   6.704937   7.302811   6.934092
    25  C    3.150757   2.477548   1.538328   2.571675   3.196536
    26  C    2.677879   2.400627   1.545237   2.490493   3.894046
    27  O    3.179279   2.978047   2.454345   2.893918   4.318318
    28  O    3.278514   3.319953   2.429459   3.563086   4.917146
    29  C    4.225417   4.521160   3.788056   4.780186   6.226198
    30  H    4.081473   3.425829   2.174691   2.852720   3.644783
    31  H    2.891459   2.684786   2.170714   3.510475   4.144556
    32  H    3.619621   2.771635   2.173371   2.797115   2.849257
    33  H    3.948589   4.500216   4.107017   5.172585   6.573430
    34  H    4.862626   5.227129   4.463621   5.544862   6.934271
    35  H    4.942977   5.050501   4.161356   4.835338   6.360389
                    6          7          8          9         10
     6  C    0.000000
     7  C    1.545906   0.000000
     8  C    2.571751   1.538327   0.000000
     9  C    2.490465   1.545253   2.562628   0.000000
    10  O    2.893824   2.454364   3.728025   1.235260   0.000000
    11  O    3.563080   2.429455   2.682998   1.358826   2.280796
    12  C    4.780118   3.788092   4.139694   2.405406   2.708666
    13  H    3.122870   3.067803   3.033083   4.591473   5.320534
    14  H    3.469715   3.936563   4.439744   5.316237   5.694813
    15  H    2.180399   3.121020   3.237543   4.470763   5.057724
    16  H    2.154250   3.453861   4.245106   4.557565   4.723781
    17  H    1.094934   2.154529   2.745187   2.784388   3.236061
    18  H    1.093447   2.146404   3.482007   2.554265   2.451370
    19  H    3.510541   2.170727   1.091197   2.822720   4.030604
    20  H    2.797296   2.173401   1.093213   3.507029   4.585592
    21  H    2.852786   2.174700   1.093503   2.797684   3.941299
    22  H    4.834784   4.160969   4.661269   2.707945   2.682064
    23  H    5.173201   4.107463   4.662099   2.691958   2.719829
    24  H    5.544545   4.463669   4.467767   3.269241   3.759726
    25  C    3.361134   3.481429   4.703813   4.198197   4.087282
    26  C    4.306621   3.729016   4.198090   4.794837   5.257819
    27  O    4.808961   4.082004   4.087116   5.257749   5.944185
    28  O    5.284779   4.765959   5.431247   5.598591   5.831368
    29  C    6.632015   5.965634   6.413468   6.767915   7.074230
    30  H    4.166316   4.442644   5.548557   5.270285   5.156723
    31  H    4.015905   3.839939   5.117799   4.226669   3.967605
    32  H    2.824513   3.331627   4.700016   3.910094   3.623748
    33  H    6.805065   5.909263   6.213599   6.601255   7.001217
    34  H    7.302580   6.704433   7.304930   7.379733   7.529769
    35  H    6.983481   6.413364   6.699840   7.394194   7.794208
                   11         12         13         14         15
    11  O    0.000000
    12  C    1.463770   0.000000
    13  H    5.337324   6.756233   0.000000
    14  H    6.351476   7.671100   1.756676   0.000000
    15  H    5.291345   6.653673   2.324940   2.682691   0.000000
    16  H    5.697463   6.903581   3.023042   2.347880   1.754658
    17  H    3.593240   4.742402   3.834939   4.314337   2.347906
    18  H    3.821131   4.807359   3.883127   3.834873   3.023048
    19  H    2.580362   3.930685   3.575064   5.076305   4.247323
    20  H    3.771238   5.230529   2.235865   3.818372   2.673144
    21  H    2.641837   3.994601   3.872670   5.218193   3.486234
    22  H    2.107151   1.092627   7.216551   7.990384   6.782939
    23  H    2.099678   1.092050   6.995455   7.797306   7.138362
    24  H    2.037423   1.087934   7.285977   8.372959   7.241847
    25  C    5.431307   6.413707   3.481952   2.745038   4.245009
    26  C    5.598541   6.768093   2.554296   2.784441   4.557577
    27  O    5.831240   7.074312   2.451480   3.236234   4.723867
    28  O    6.462404   7.468874   3.821145   3.593226   5.697459
    29  C    7.468601   8.426475   4.807418   4.742560   6.903634
    30  H    6.498190   7.505568   3.765065   2.585296   4.621110
    31  H    5.396961   6.196677   4.297398   3.762337   5.196268
    32  H    5.239301   6.169369   3.820545   3.039149   3.941733
    33  H    7.122874   8.016944   5.056851   5.334726   7.206422
    34  H    8.140839   8.992837   5.714825   5.418163   7.694403
    35  H    8.084919   9.149277   4.726779   4.644565   6.913380
                   16         17         18         19         20
    16  H    0.000000
    17  H    2.682678   0.000000
    18  H    2.324914   1.756687   0.000000
    19  H    5.196398   3.762448   4.297421   0.000000
    20  H    3.941965   3.039427   3.820687   1.774654   0.000000
    21  H    4.621164   2.585446   3.765162   1.773521   1.779751
    22  H    6.912730   4.644128   4.726025   4.671038   5.732908
    23  H    7.207136   5.335241   5.057664   4.350255   5.718876
    24  H    7.694130   5.417513   5.714543   4.094742   5.545633
    25  C    3.237391   4.439673   3.032969   5.117872   4.700004
    26  C    4.470739   5.316188   4.591341   4.226673   3.909929
    27  O    5.057776   5.694782   5.320413   3.967542   3.623517
    28  O    5.291284   6.351431   5.337187   5.397004   5.239177
    29  C    6.653697   7.670989   6.756026   6.196488   6.169105
    30  H    3.486180   5.218185   3.872646   5.984553   5.376781
    31  H    4.247114   5.076127   3.574805   5.351383   5.279035
    32  H    2.672825   3.818246   2.235757   5.279117   4.786783
    33  H    7.137854   7.796665   6.994957   5.817631   6.060769
    34  H    7.242152   8.372721   7.285622   7.104894   7.123181
    35  H    6.783279   7.990912   7.216767   6.532227   6.282959
                   21         22         23         24         25
    21  H    0.000000
    22  H    4.365087   0.000000
    23  H    4.738333   1.784091   0.000000
    24  H    4.205609   1.799857   1.798605   0.000000
    25  C    5.548563   6.699125   6.214568   7.305479   0.000000
    26  C    5.270172   7.393676   6.601673   7.380475   2.562615
    27  O    5.156542   7.793774   7.001329   7.530431   3.728009
    28  O    6.498134   8.084347   7.123444   8.141799   2.682978
    29  C    7.505334   9.148505   8.017038   8.993655   4.139679
    30  H    6.410856   7.783503   7.299108   8.388762   1.093500
    31  H    5.984496   6.531354   5.818540   7.105555   1.091197
    32  H    5.376797   6.282259   6.061940   7.123565   1.093223
    33  H    7.298153   8.830189   7.579185   8.484758   4.662066
    34  H    8.388218   9.677075   8.483998   9.614336   4.467787
    35  H    7.784214   9.872704   8.830960   9.678701   4.661254
                   26         27         28         29         30
    26  C    0.000000
    27  O    1.235251   0.000000
    28  O    1.358858   2.280819   0.000000
    29  C    2.405387   2.708638   1.463766   0.000000
    30  H    2.797624   3.941256   2.641724   3.994595   0.000000
    31  H    2.822747   4.030607   2.580426   3.930686   1.773544
    32  H    3.506997   4.585548   3.771227   5.230519   1.779773
    33  H    2.691363   2.718752   2.099719   1.092050   4.738299
    34  H    3.269230   3.759726   2.037413   1.087933   4.205961
    35  H    2.708496   2.683055   2.107121   1.092629   4.364813
                   31         32         33         34         35
    31  H    0.000000
    32  H    1.774674   0.000000
    33  H    4.350531   5.718833   0.000000
    34  H    4.094503   5.545661   1.798613   0.000000
    35  H    4.670988   5.732912   1.784094   1.799840   0.000000
 Stoichiometry    C11H18NO5(2)
 Framework group  C1[X(C11H18NO5)]
 Deg. of freedom    99
 Full point group                 C1      NOp   1
 Largest Abelian subgroup         C1      NOp   1
 Largest concise Abelian subgroup C1      NOp   1
                         Standard orientation:                         
 ---------------------------------------------------------------------
 Center     Atomic      Atomic             Coordinates (Angstroms)
 Number     Number       Type             X           Y           Z
 ---------------------------------------------------------------------
      1          8           0        0.000047    1.499273   -0.000228
      2          7           0        0.000041    0.181506   -0.000018
      3          6           0        1.261298   -0.525945   -0.340426
      4          6           0        1.253157   -1.917962    0.331914
      5          6           0       -0.000001   -2.762359    0.000038
      6          6           0       -1.253131   -1.917898   -0.331844
      7          6           0       -1.261260   -0.525879    0.340496
      8          6           0       -1.429041   -0.597382    1.867973
      9          6           0       -2.373729    0.306210   -0.336148
     10          8           0       -2.529910    0.370364   -1.559814
     11          8           0       -3.184285    0.944155    0.548405
     12          6           0       -4.213328    1.821654   -0.011675
     13          1           0        1.333258   -1.763966    1.411491
     14          1           0        2.157072   -2.451837    0.020781
     15          1           0       -0.203423   -3.417008    0.853450
     16          1           0        0.203402   -3.416994   -0.853395
     17          1           0       -2.157065   -2.451761   -0.020760
     18          1           0       -1.333164   -1.763879   -1.411427
     19          1           0       -1.367996    0.402983    2.299546
     20          1           0       -0.641288   -1.216045    2.305942
     21          1           0       -2.401540   -1.027408    2.123064
     22          1           0       -4.893687    1.248020   -0.645621
     23          1           0       -3.741456    2.609452   -0.602678
     24          1           0       -4.731766    2.234405    0.851146
     25          6           0        1.429135   -0.597584   -1.867892
     26          6           0        2.373738    0.306186    0.336177
     27          8           0        2.529845    0.370496    1.559835
     28          8           0        3.184358    0.944036   -0.548434
     29          6           0        4.213115    1.821859    0.011653
     30          1           0        2.401676   -1.027558   -2.122897
     31          1           0        1.367991    0.402738   -2.299549
     32          1           0        0.641422   -1.216375   -2.305776
     33          1           0        3.741112    2.608833    0.603649
     34          1           0        4.730660    2.235678   -0.851191
     35          1           0        4.894343    1.248182    0.644631
 ---------------------------------------------------------------------
 Rotational constants (GHZ):           0.7914524           0.3189605           0.2828603
 Leave Link  202 at Thu Jan  9 20:07:02 2025, MaxMem=  4026531840 cpu:               0.1 elap:               0.0
 (Enter /usr/local/intel/g16/l301.exe)
 Standard basis: def2TZVP (5D, 7F)
 Ernie: Thresh=  0.10000D-02 Tol=  0.10000D-05 Strict=F.
 There are   720 symmetry adapted cartesian basis functions of A   symmetry.
 There are   635 symmetry adapted basis functions of A   symmetry.
   635 basis functions,  1011 primitive gaussians,   720 cartesian basis functions
    66 alpha electrons       65 beta electrons
       nuclear repulsion energy      1373.9423833769 Hartrees.
 IExCor= 4336 DFT=T Ex+Corr=M062X ExCW=0 ScaHFX=  0.540000
 ScaDFX=  1.000000  1.000000  1.000000  1.000000 ScalE2=  1.000000  1.000000
 IRadAn=      5 IRanWt=     -1 IRanGd=            0 ICorTp=0 IEmpDi=  4
 NAtoms=   35 NActive=   35 NUniq=   35 SFac= 1.00D+00 NAtFMM=   60 NAOKFM=F Big=F
 Integral buffers will be    131072 words long.
 Raffenetti 2 integral format.
 Two-electron integral symmetry is turned on.
 Leave Link  301 at Thu Jan  9 20:07:02 2025, MaxMem=  4026531840 cpu:               1.2 elap:               0.1
 (Enter /usr/local/intel/g16/l302.exe)
 NPDir=0 NMtPBC=     1 NCelOv=     1 NCel=       1 NClECP=     1 NCelD=      1
         NCelK=      1 NCelE2=     1 NClLst=     1 CellRange=     0.0.
 One-electron integrals computed using PRISM.
 One-electron integral symmetry used in STVInt
   1 Symmetry operations used in ECPInt.
 ECPInt:  NShTT=   33670 NPrTT=  101004 LenC2=   30733 LenP2D=   67570.
 LDataN:  DoStor=T MaxTD1= 6 Len=  172
 NBasis=   635 RedAO= T EigKep=  2.53D-05  NBF=   635
 NBsUse=   635 1.00D-06 EigRej= -1.00D+00 NBFU=   635
 Precomputing XC quadrature grid using
 IXCGrd= 4 IRadAn=           5 IRanWt=          -1 IRanGd=           0 AccXCQ= 0.00D+00.
 Generated NRdTot=       0 NPtTot=           0 NUsed=           0 NTot=          32
 NSgBfM=   713   713   713   713   713 MxSgAt=    35 MxSgA2=    35.
 Leave Link  302 at Thu Jan  9 20:07:03 2025, MaxMem=  4026531840 cpu:              23.4 elap:               1.2
 (Enter /usr/local/intel/g16/l303.exe)
 DipDrv:  MaxL=1.
 Leave Link  303 at Thu Jan  9 20:07:04 2025, MaxMem=  4026531840 cpu:               3.8 elap:               0.2
 (Enter /usr/local/intel/g16/l401.exe)
 ExpMin= 9.52D-02 ExpMax= 2.70D+04 ExpMxC= 9.22D+02 IAcc=3 IRadAn=         5 AccDes= 0.00D+00
 Harris functional with IExCor= 1009 and IRadAn=       5 diagonalized for initial guess.
 HarFok:  IExCor= 1009 AccDes= 0.00D+00 IRadAn=         5 IDoV= 1 UseB2=F ITyADJ=14
 ICtDFT=  3500011 ScaDFX=  1.000000  1.000000  1.000000  1.000000
 FoFCou: FMM=F IPFlag=           0 FMFlag=      100000 FMFlg1=           0
         NFxFlg=           0 DoJE=T BraDBF=F KetDBF=T FulRan=T
         wScrn=  0.000000 ICntrl=       500 IOpCl=  0 I1Cent=   200000004 NGrid=           0
         NMat0=    1 NMatS0=      1 NMatT0=    0 NMatD0=    1 NMtDS0=    0 NMtDT0=    0
 Petite list used in FoFCou.
 Harris En= -860.396674522762    
 JPrj=0 DoOrth=F DoCkMO=F.
 Initial guess <Sx>= 0.0000 <Sy>= 0.0000 <Sz>= 0.5000 <S**2>= 0.7500 S= 0.5000
 Leave Link  401 at Thu Jan  9 20:07:08 2025, MaxMem=  4026531840 cpu:              87.3 elap:               4.4
 (Enter /usr/local/intel/g16/l502.exe)
 Integral symmetry usage will be decided dynamically.
 UHF open shell SCF:
 Using DIIS extrapolation, IDIIS=  1040.
 NGot=  4026531840 LenX=  4025473370 LenY=  4024954250
 Requested convergence on RMS density matrix=1.00D-08 within 128 cycles.
 Requested convergence on MAX density matrix=1.00D-06.
 Requested convergence on             energy=1.00D-06.
 No special actions if energy rises.
 Fock matrices will be formed incrementally for  20 cycles.
 Integral accuracy reduced to 1.0D-05 until final iterations.

 Cycle   1  Pass 0  IDiag  1:
 FoFJK:  IHMeth= 1 ICntrl=       0 DoSepK=F KAlg= 0 I1Cent=           0 FoldK=F
 IRaf= 850000000 NMat=       1 IRICut=       1 DoRegI=T DoRafI=F ISym2E= 0 IDoP0=0 IntGTp=1.
 FoFCou: FMM=F IPFlag=           0 FMFlag=      100000 FMFlg1=           0
         NFxFlg=           0 DoJE=F BraDBF=F KetDBF=F FulRan=T
         wScrn=  0.000000 ICntrl=         0 IOpCl=  1 I1Cent=           0 NGrid=           0
         NMat0=    1 NMatS0=      1 NMatT0=    0 NMatD0=    1 NMtDS0=    0 NMtDT0=    0
 Symmetry not used in FoFCou.
 E= -860.289206862953    
 DIIS: error= 2.60D-02 at cycle   1 NSaved=   1.
 NSaved= 1 IEnMin= 1 EnMin= -860.289206862953     IErMin= 1 ErrMin= 2.60D-02
 ErrMax= 2.60D-02  0.00D+00 EMaxC= 1.00D-01 BMatC= 2.81D+00 BMatP= 2.81D+00
 IDIUse=3 WtCom= 7.40D-01 WtEn= 2.60D-01
 Coeff-Com:  0.100D+01
 Coeff-En:   0.100D+01
 Coeff:      0.100D+01
 Gap=     0.309 Goal=   None    Shift=    0.000
 Gap=     0.229 Goal=   None    Shift=    0.000
 GapD=    0.229 DampG=1.000 DampE=0.500 DampFc=0.5000 IDamp=-1.
 Damping current iteration by 5.00D-01
 RMSDP=2.46D-03 MaxDP=2.18D-01              OVMax= 1.95D-01

 Cycle   2  Pass 0  IDiag  1:
 RMSU=  1.23D-03    CP:  9.89D-01
 E= -860.508658109494     Delta-E=       -0.219451246541 Rises=F Damp=T
 DIIS: error= 6.74D-03 at cycle   2 NSaved=   2.
 NSaved= 2 IEnMin= 2 EnMin= -860.508658109494     IErMin= 2 ErrMin= 6.74D-03
 ErrMax= 6.74D-03  0.00D+00 EMaxC= 1.00D-01 BMatC= 3.12D-01 BMatP= 2.81D+00
 IDIUse=3 WtCom= 9.33D-01 WtEn= 6.74D-02
 Coeff-Com:  0.519D-01 0.948D+00
 Coeff-En:   0.100D+00 0.900D+00
 Coeff:      0.552D-01 0.945D+00
 Gap=     0.336 Goal=   None    Shift=    0.000
 Gap=     0.348 Goal=   None    Shift=    0.000
 RMSDP=8.55D-04 MaxDP=3.86D-02 DE=-2.19D-01 OVMax= 1.31D-01

 Cycle   3  Pass 0  IDiag  1:
 RMSU=  8.33D-04    CP:  9.77D-01  1.14D+00
 E= -860.758586776800     Delta-E=       -0.249928667306 Rises=F Damp=F
 DIIS: error= 6.18D-03 at cycle   3 NSaved=   3.
 NSaved= 3 IEnMin= 3 EnMin= -860.758586776800     IErMin= 3 ErrMin= 6.18D-03
 ErrMax= 6.18D-03  0.00D+00 EMaxC= 1.00D-01 BMatC= 2.01D-01 BMatP= 3.12D-01
 IDIUse=3 WtCom= 9.38D-01 WtEn= 6.18D-02
 Coeff-Com: -0.647D-01 0.455D+00 0.609D+00
 Coeff-En:   0.000D+00 0.000D+00 0.100D+01
 Coeff:     -0.607D-01 0.427D+00 0.633D+00
 Gap=     0.299 Goal=   None    Shift=    0.000
 Gap=     0.302 Goal=   None    Shift=    0.000
 RMSDP=3.79D-04 MaxDP=2.07D-02 DE=-2.50D-01 OVMax= 6.25D-02

 Cycle   4  Pass 0  IDiag  1:
 RMSU=  3.30D-04    CP:  9.80D-01  1.24D+00  8.23D-01
 E= -860.790351992782     Delta-E=       -0.031765215982 Rises=F Damp=F
 DIIS: error= 2.29D-03 at cycle   4 NSaved=   4.
 NSaved= 4 IEnMin= 4 EnMin= -860.790351992782     IErMin= 4 ErrMin= 2.29D-03
 ErrMax= 2.29D-03  0.00D+00 EMaxC= 1.00D-01 BMatC= 3.65D-02 BMatP= 2.01D-01
 IDIUse=3 WtCom= 9.77D-01 WtEn= 2.29D-02
 Coeff-Com: -0.265D-01 0.790D-01 0.333D+00 0.614D+00
 Coeff-En:   0.000D+00 0.000D+00 0.146D+00 0.854D+00
 Coeff:     -0.259D-01 0.772D-01 0.329D+00 0.620D+00
 Gap=     0.297 Goal=   None    Shift=    0.000
 Gap=     0.310 Goal=   None    Shift=    0.000
 RMSDP=1.59D-04 MaxDP=1.06D-02 DE=-3.18D-02 OVMax= 1.34D-02

 Cycle   5  Pass 0  IDiag  1:
 RMSU=  1.12D-04    CP:  9.78D-01  1.20D+00  8.91D-01  7.44D-01
 E= -860.797327995167     Delta-E=       -0.006976002384 Rises=F Damp=F
 DIIS: error= 6.08D-04 at cycle   5 NSaved=   5.
 NSaved= 5 IEnMin= 5 EnMin= -860.797327995167     IErMin= 5 ErrMin= 6.08D-04
 ErrMax= 6.08D-04  0.00D+00 EMaxC= 1.00D-01 BMatC= 1.35D-03 BMatP= 3.65D-02
 IDIUse=3 WtCom= 9.94D-01 WtEn= 6.08D-03
 Coeff-Com: -0.655D-02 0.923D-02 0.115D+00 0.266D+00 0.616D+00
 Coeff-En:   0.000D+00 0.000D+00 0.000D+00 0.000D+00 0.100D+01
 Coeff:     -0.651D-02 0.917D-02 0.114D+00 0.265D+00 0.618D+00
 Gap=     0.296 Goal=   None    Shift=    0.000
 Gap=     0.309 Goal=   None    Shift=    0.000
 RMSDP=3.46D-05 MaxDP=2.94D-03 DE=-6.98D-03 OVMax= 7.37D-03

 Cycle   6  Pass 0  IDiag  1:
 RMSU=  3.11D-05    CP:  9.78D-01  1.20D+00  9.03D-01  7.69D-01  9.37D-01
 E= -860.797631084135     Delta-E=       -0.000303088968 Rises=F Damp=F
 DIIS: error= 3.03D-04 at cycle   6 NSaved=   6.
 NSaved= 6 IEnMin= 6 EnMin= -860.797631084135     IErMin= 6 ErrMin= 3.03D-04
 ErrMax= 3.03D-04  0.00D+00 EMaxC= 1.00D-01 BMatC= 2.06D-04 BMatP= 1.35D-03
 IDIUse=3 WtCom= 9.97D-01 WtEn= 3.03D-03
 Coeff-Com:  0.150D-02-0.800D-02 0.551D-02 0.202D-01 0.251D+00 0.729D+00
 Coeff-En:   0.000D+00 0.000D+00 0.000D+00 0.000D+00 0.000D+00 0.100D+01
 Coeff:      0.150D-02-0.797D-02 0.549D-02 0.201D-01 0.251D+00 0.730D+00
 Gap=     0.298 Goal=   None    Shift=    0.000
 Gap=     0.311 Goal=   None    Shift=    0.000
 RMSDP=2.96D-05 MaxDP=2.66D-03 DE=-3.03D-04 OVMax= 2.31D-03

 Cycle   7  Pass 0  IDiag  1:
 RMSU=  1.64D-05    CP:  9.77D-01  1.20D+00  9.09D-01  7.79D-01  1.11D+00
                    CP:  1.32D+00
 E= -860.797690692536     Delta-E=       -0.000059608401 Rises=F Damp=F
 DIIS: error= 1.19D-04 at cycle   7 NSaved=   7.
 NSaved= 7 IEnMin= 7 EnMin= -860.797690692536     IErMin= 7 ErrMin= 1.19D-04
 ErrMax= 1.19D-04  0.00D+00 EMaxC= 1.00D-01 BMatC= 3.88D-05 BMatP= 2.06D-04
 IDIUse=3 WtCom= 9.99D-01 WtEn= 1.19D-03
 Coeff-Com:  0.245D-02-0.564D-02-0.209D-01-0.561D-01-0.284D-01 0.237D+00
 Coeff-Com:  0.871D+00
 Coeff-En:   0.000D+00 0.000D+00 0.000D+00 0.000D+00 0.000D+00 0.000D+00
 Coeff-En:   0.100D+01
 Coeff:      0.245D-02-0.564D-02-0.209D-01-0.560D-01-0.283D-01 0.237D+00
 Coeff:      0.872D+00
 Gap=     0.298 Goal=   None    Shift=    0.000
 Gap=     0.311 Goal=   None    Shift=    0.000
 RMSDP=1.88D-05 MaxDP=1.61D-03 DE=-5.96D-05 OVMax= 3.58D-03

 Cycle   8  Pass 0  IDiag  1:
 RMSU=  7.51D-06    CP:  9.77D-01  1.19D+00  9.13D-01  7.84D-01  1.23D+00
                    CP:  1.56D+00  1.27D+00
 E= -860.797712060448     Delta-E=       -0.000021367912 Rises=F Damp=F
 DIIS: error= 1.23D-04 at cycle   8 NSaved=   8.
 NSaved= 8 IEnMin= 8 EnMin= -860.797712060448     IErMin= 7 ErrMin= 1.19D-04
 ErrMax= 1.23D-04  0.00D+00 EMaxC= 1.00D-01 BMatC= 2.08D-05 BMatP= 3.88D-05
 IDIUse=3 WtCom= 9.99D-01 WtEn= 1.19D-03
 Coeff-Com:  0.122D-02-0.176D-02-0.123D-01-0.379D-01-0.719D-01-0.644D-01
 Coeff-Com:  0.528D+00 0.659D+00
 Coeff-En:   0.000D+00 0.000D+00 0.000D+00 0.000D+00 0.000D+00 0.000D+00
 Coeff-En:   0.000D+00 0.100D+01
 Coeff:      0.122D-02-0.175D-02-0.122D-01-0.378D-01-0.718D-01-0.643D-01
 Coeff:      0.527D+00 0.660D+00
 Gap=     0.298 Goal=   None    Shift=    0.000
 Gap=     0.311 Goal=   None    Shift=    0.000
 RMSDP=1.11D-05 MaxDP=1.05D-03 DE=-2.14D-05 OVMax= 1.20D-03

 Cycle   9  Pass 0  IDiag  1:
 RMSU=  3.84D-06    CP:  9.77D-01  1.19D+00  9.14D-01  7.84D-01  1.29D+00
                    CP:  1.70D+00  1.57D+00  1.33D+00
 E= -860.797718918192     Delta-E=       -0.000006857745 Rises=F Damp=F
 DIIS: error= 3.11D-05 at cycle   9 NSaved=   9.
 NSaved= 9 IEnMin= 9 EnMin= -860.797718918192     IErMin= 9 ErrMin= 3.11D-05
 ErrMax= 3.11D-05  0.00D+00 EMaxC= 1.00D-01 BMatC= 2.15D-06 BMatP= 2.08D-05
 IDIUse=1 WtCom= 1.00D+00 WtEn= 0.00D+00
 Coeff-Com: -0.889D-04 0.632D-03 0.128D-02-0.814D-03-0.182D-01-0.942D-01
 Coeff-Com:  0.293D-01 0.180D+00 0.902D+00
 Coeff:     -0.889D-04 0.632D-03 0.128D-02-0.814D-03-0.182D-01-0.942D-01
 Coeff:      0.293D-01 0.180D+00 0.902D+00
 Gap=     0.298 Goal=   None    Shift=    0.000
 Gap=     0.311 Goal=   None    Shift=    0.000
 RMSDP=5.77D-06 MaxDP=5.33D-04 DE=-6.86D-06 OVMax= 9.85D-04

 Initial convergence to 1.0D-05 achieved.  Increase integral accuracy.
 Cycle  10  Pass 1  IDiag  1:
 E= -860.797876826271     Delta-E=       -0.000157908079 Rises=F Damp=F
 DIIS: error= 2.32D-04 at cycle   1 NSaved=   1.
 NSaved= 1 IEnMin= 1 EnMin= -860.797876826271     IErMin= 1 ErrMin= 2.32D-04
 ErrMax= 2.32D-04  0.00D+00 EMaxC= 1.00D-01 BMatC= 4.57D-05 BMatP= 4.57D-05
 IDIUse=3 WtCom= 9.98D-01 WtEn= 2.32D-03
 Coeff-Com:  0.100D+01
 Coeff-En:   0.100D+01
 Coeff:      0.100D+01
 Gap=     0.298 Goal=   None    Shift=    0.000
 Gap=     0.311 Goal=   None    Shift=    0.000
 RMSDP=5.77D-06 MaxDP=5.33D-04 DE=-1.58D-04 OVMax= 3.98D-04

 Cycle  11  Pass 1  IDiag  1:
 RMSU=  1.70D-04    CP:  1.00D+00
 E= -860.797882371754     Delta-E=       -0.000005545483 Rises=F Damp=F
 DIIS: error= 1.97D-05 at cycle   2 NSaved=   2.
 NSaved= 2 IEnMin= 2 EnMin= -860.797882371754     IErMin= 2 ErrMin= 1.97D-05
 ErrMax= 1.97D-05  0.00D+00 EMaxC= 1.00D-01 BMatC= 1.34D-06 BMatP= 4.57D-05
 IDIUse=1 WtCom= 1.00D+00 WtEn= 0.00D+00
 Coeff-Com:  0.304D-01 0.970D+00
 Coeff:      0.304D-01 0.970D+00
 Gap=     0.298 Goal=   None    Shift=    0.000
 Gap=     0.311 Goal=   None    Shift=    0.000
 RMSDP=6.11D-06 MaxDP=3.58D-04 DE=-5.55D-06 OVMax= 4.50D-04

 Cycle  12  Pass 1  IDiag  1:
 RMSU=  3.04D-06    CP:  1.00D+00  1.03D+00
 E= -860.797882103867     Delta-E=        0.000000267887 Rises=F Damp=F
 DIIS: error= 3.17D-05 at cycle   3 NSaved=   3.
 NSaved= 3 IEnMin= 2 EnMin= -860.797882371754     IErMin= 2 ErrMin= 1.97D-05
 ErrMax= 3.17D-05  0.00D+00 EMaxC= 1.00D-01 BMatC= 3.44D-06 BMatP= 1.34D-06
 IDIUse=1 WtCom= 1.00D+00 WtEn= 0.00D+00
 Coeff-Com: -0.104D-01 0.624D+00 0.386D+00
 Coeff:     -0.104D-01 0.624D+00 0.386D+00
 Gap=     0.298 Goal=   None    Shift=    0.000
 Gap=     0.311 Goal=   None    Shift=    0.000
 RMSDP=1.39D-06 MaxDP=9.28D-05 DE= 2.68D-07 OVMax= 1.52D-04

 Cycle  13  Pass 1  IDiag  1:
 RMSU=  1.06D-06    CP:  1.00D+00  1.03D+00  7.24D-01
 E= -860.797882713895     Delta-E=       -0.000000610028 Rises=F Damp=F
 DIIS: error= 3.74D-06 at cycle   4 NSaved=   4.
 NSaved= 4 IEnMin= 4 EnMin= -860.797882713895     IErMin= 4 ErrMin= 3.74D-06
 ErrMax= 3.74D-06  0.00D+00 EMaxC= 1.00D-01 BMatC= 3.03D-08 BMatP= 1.34D-06
 IDIUse=1 WtCom= 1.00D+00 WtEn= 0.00D+00
 Coeff-Com: -0.331D-02 0.122D+00 0.522D-01 0.829D+00
 Coeff:     -0.331D-02 0.122D+00 0.522D-01 0.829D+00
 Gap=     0.298 Goal=   None    Shift=    0.000
 Gap=     0.311 Goal=   None    Shift=    0.000
 RMSDP=3.27D-07 MaxDP=3.26D-05 DE=-6.10D-07 OVMax= 7.99D-05

 Cycle  14  Pass 1  IDiag  1:
 RMSU=  2.36D-07    CP:  1.00D+00  1.03D+00  7.30D-01  1.20D+00
 E= -860.797882730740     Delta-E=       -0.000000016846 Rises=F Damp=F
 DIIS: error= 4.80D-06 at cycle   5 NSaved=   5.
 NSaved= 5 IEnMin= 5 EnMin= -860.797882730740     IErMin= 4 ErrMin= 3.74D-06
 ErrMax= 4.80D-06  0.00D+00 EMaxC= 1.00D-01 BMatC= 2.54D-08 BMatP= 3.03D-08
 IDIUse=1 WtCom= 1.00D+00 WtEn= 0.00D+00
 Coeff-Com:  0.458D-02-0.308D+00-0.237D+00 0.490D+00 0.105D+01
 Coeff:      0.458D-02-0.308D+00-0.237D+00 0.490D+00 0.105D+01
 Gap=     0.298 Goal=   None    Shift=    0.000
 Gap=     0.311 Goal=   None    Shift=    0.000
 RMSDP=4.53D-07 MaxDP=3.37D-05 DE=-1.68D-08 OVMax= 8.71D-05

 Cycle  15  Pass 1  IDiag  1:
 RMSU=  2.45D-07    CP:  1.00D+00  1.03D+00  7.31D-01  1.49D+00  1.89D+00
 E= -860.797882745770     Delta-E=       -0.000000015030 Rises=F Damp=F
 DIIS: error= 9.67D-07 at cycle   6 NSaved=   6.
 NSaved= 6 IEnMin= 6 EnMin= -860.797882745770     IErMin= 6 ErrMin= 9.67D-07
 ErrMax= 9.67D-07  0.00D+00 EMaxC= 1.00D-01 BMatC= 1.90D-09 BMatP= 2.54D-08
 IDIUse=1 WtCom= 1.00D+00 WtEn= 0.00D+00
 Coeff-Com:  0.214D-02-0.127D+00-0.957D-01 0.626D-01 0.329D+00 0.829D+00
 Coeff:      0.214D-02-0.127D+00-0.957D-01 0.626D-01 0.329D+00 0.829D+00
 Gap=     0.298 Goal=   None    Shift=    0.000
 Gap=     0.311 Goal=   None    Shift=    0.000
 RMSDP=1.33D-07 MaxDP=1.33D-05 DE=-1.50D-08 OVMax= 3.54D-05

 Cycle  16  Pass 1  IDiag  1:
 RMSU=  5.28D-08    CP:  1.00D+00  1.03D+00  7.21D-01  1.53D+00  2.16D+00
                    CP:  1.33D+00
 E= -860.797882747267     Delta-E=       -0.000000001497 Rises=F Damp=F
 DIIS: error= 3.78D-07 at cycle   7 NSaved=   7.
 NSaved= 7 IEnMin= 7 EnMin= -860.797882747267     IErMin= 7 ErrMin= 3.78D-07
 ErrMax= 3.78D-07  0.00D+00 EMaxC= 1.00D-01 BMatC= 7.59D-10 BMatP= 1.90D-09
 IDIUse=1 WtCom= 1.00D+00 WtEn= 0.00D+00
 Coeff-Com:  0.160D-03-0.296D-02-0.208D-02-0.637D-01-0.595D-01 0.436D+00
 Coeff-Com:  0.693D+00
 Coeff:      0.160D-03-0.296D-02-0.208D-02-0.637D-01-0.595D-01 0.436D+00
 Coeff:      0.693D+00
 Gap=     0.298 Goal=   None    Shift=    0.000
 Gap=     0.311 Goal=   None    Shift=    0.000
 RMSDP=6.62D-08 MaxDP=5.75D-06 DE=-1.50D-09 OVMax= 1.92D-05

 Cycle  17  Pass 1  IDiag  1:
 RMSU=  3.28D-08    CP:  1.00D+00  1.03D+00  7.12D-01  1.55D+00  2.26D+00
                    CP:  1.48D+00  1.23D+00
 E= -860.797882747624     Delta-E=       -0.000000000357 Rises=F Damp=F
 DIIS: error= 2.43D-07 at cycle   8 NSaved=   8.
 NSaved= 8 IEnMin= 8 EnMin= -860.797882747624     IErMin= 8 ErrMin= 2.43D-07
 ErrMax= 2.43D-07  0.00D+00 EMaxC= 1.00D-01 BMatC= 1.20D-10 BMatP= 7.59D-10
 IDIUse=1 WtCom= 1.00D+00 WtEn= 0.00D+00
 Coeff-Com: -0.284D-03 0.201D-01 0.152D-01-0.371D-01-0.814D-01 0.586D-01
 Coeff-Com:  0.309D+00 0.715D+00
 Coeff:     -0.284D-03 0.201D-01 0.152D-01-0.371D-01-0.814D-01 0.586D-01
 Coeff:      0.309D+00 0.715D+00
 Gap=     0.298 Goal=   None    Shift=    0.000
 Gap=     0.311 Goal=   None    Shift=    0.000
 RMSDP=2.14D-08 MaxDP=1.77D-06 DE=-3.57D-10 OVMax= 1.03D-05

 Cycle  18  Pass 1  IDiag  1:
 RMSU=  1.23D-08    CP:  1.00D+00  1.03D+00  7.09D-01  1.55D+00  2.27D+00
                    CP:  1.52D+00  1.42D+00  1.17D+00
 E= -860.797882747715     Delta-E=       -0.000000000091 Rises=F Damp=F
 DIIS: error= 1.44D-07 at cycle   9 NSaved=   9.
 NSaved= 9 IEnMin= 9 EnMin= -860.797882747715     IErMin= 9 ErrMin= 1.44D-07
 ErrMax= 1.44D-07  0.00D+00 EMaxC= 1.00D-01 BMatC= 4.28D-11 BMatP= 1.20D-10
 IDIUse=1 WtCom= 1.00D+00 WtEn= 0.00D+00
 Coeff-Com: -0.182D-03 0.104D-01 0.812D-02-0.791D-03-0.215D-01-0.101D+00
 Coeff-Com: -0.572D-01 0.329D+00 0.833D+00
 Coeff:     -0.182D-03 0.104D-01 0.812D-02-0.791D-03-0.215D-01-0.101D+00
 Coeff:     -0.572D-01 0.329D+00 0.833D+00
 Gap=     0.298 Goal=   None    Shift=    0.000
 Gap=     0.311 Goal=   None    Shift=    0.000
 RMSDP=1.50D-08 MaxDP=1.74D-06 DE=-9.09D-11 OVMax= 9.61D-06

 Cycle  19  Pass 1  IDiag  1:
 RMSU=  7.30D-09    CP:  1.00D+00  1.03D+00  7.09D-01  1.55D+00  2.28D+00
                    CP:  1.54D+00  1.53D+00  1.37D+00  1.63D+00
 E= -860.797882747764     Delta-E=       -0.000000000049 Rises=F Damp=F
 DIIS: error= 9.19D-08 at cycle  10 NSaved=  10.
 NSaved=10 IEnMin=10 EnMin= -860.797882747764     IErMin=10 ErrMin= 9.19D-08
 ErrMax= 9.19D-08  0.00D+00 EMaxC= 1.00D-01 BMatC= 1.29D-11 BMatP= 4.28D-11
 IDIUse=1 WtCom= 1.00D+00 WtEn= 0.00D+00
 Coeff-Com:  0.105D-03-0.813D-02-0.566D-02 0.188D-01 0.405D-01-0.583D-01
 Coeff-Com: -0.175D+00-0.307D+00 0.186D+00 0.131D+01
 Coeff:      0.105D-03-0.813D-02-0.566D-02 0.188D-01 0.405D-01-0.583D-01
 Coeff:     -0.175D+00-0.307D+00 0.186D+00 0.131D+01
 Gap=     0.298 Goal=   None    Shift=    0.000
 Gap=     0.311 Goal=   None    Shift=    0.000
 RMSDP=1.60D-08 MaxDP=2.11D-06 DE=-4.91D-11 OVMax= 1.13D-05

 Cycle  20  Pass 1  IDiag  1:
 RMSU=  6.73D-09    CP:  1.00D+00  1.03D+00  7.09D-01  1.55D+00  2.27D+00
                    CP:  1.54D+00  1.62D+00  1.56D+00  2.40D+00  1.94D+00
 E= -860.797882747804     Delta-E=       -0.000000000040 Rises=F Damp=F
 DIIS: error= 3.38D-08 at cycle  11 NSaved=  11.
 NSaved=11 IEnMin=11 EnMin= -860.797882747804     IErMin=11 ErrMin= 3.38D-08
 ErrMax= 3.38D-08  0.00D+00 EMaxC= 1.00D-01 BMatC= 2.32D-12 BMatP= 1.29D-11
 IDIUse=1 WtCom= 1.00D+00 WtEn= 0.00D+00
 Coeff-Com:  0.690D-04-0.457D-02-0.328D-02 0.488D-02 0.177D-01 0.210D-02
 Coeff-Com: -0.353D-01-0.167D+00-0.107D+00 0.376D+00 0.916D+00
 Coeff:      0.690D-04-0.457D-02-0.328D-02 0.488D-02 0.177D-01 0.210D-02
 Coeff:     -0.353D-01-0.167D+00-0.107D+00 0.376D+00 0.916D+00
 Gap=     0.298 Goal=   None    Shift=    0.000
 Gap=     0.311 Goal=   None    Shift=    0.000
 RMSDP=6.07D-09 MaxDP=7.35D-07 DE=-4.00D-11 OVMax= 3.80D-06

 SCF Done:  E(UM062X) =  -860.797882748     A.U. after   20 cycles
            NFock= 20  Conv=0.61D-08     -V/T= 2.0058
 <Sx>= 0.0000 <Sy>= 0.0000 <Sz>= 0.5000 <S**2>= 0.7561 S= 0.5030
 <L.S>=  0.00000000000    
 KE= 8.558655982313D+02 PE=-4.759917671340D+03 EE= 1.669311806984D+03
 Annihilation of the first spin contaminant:
 S**2 before annihilation     0.7561,   after     0.7500
 Leave Link  502 at Thu Jan  9 20:16:56 2025, MaxMem=  4026531840 cpu:           11755.6 elap:             587.9
 (Enter /usr/local/intel/g16/l601.exe)
 Copying SCF densities to generalized density rwf, IOpCl= 1 IROHF=0.

 **********************************************************************

            Population analysis using the SCF Density.

 **********************************************************************

 Orbital symmetries:
 Alpha Orbitals:
       Occupied  (A) (A) (A) (A) (A) (A) (A) (A) (A) (A) (A) (A)
                 (A) (A) (A) (A) (A) (A) (A) (A) (A) (A) (A) (A)
                 (A) (A) (A) (A) (A) (A) (A) (A) (A) (A) (A) (A)
                 (A) (A) (A) (A) (A) (A) (A) (A) (A) (A) (A) (A)
                 (A) (A) (A) (A) (A) (A) (A) (A) (A) (A) (A) (A)
                 (A) (A) (A) (A) (A) (A)
       Virtual   (A) (A) (A) (A) (A) (A) (A) (A) (A) (A) (A) (A)
                 (A) (A) (A) (A) (A) (A) (A) (A) (A) (A) (A) (A)
                 (A) (A) (A) (A) (A) (A) (A) (A) (A) (A) (A) (A)
                 (A) (A) (A) (A) (A) (A) (A) (A) (A) (A) (A) (A)
                 (A) (A) (A) (A) (A) (A) (A) (A) (A) (A) (A) (A)
                 (A) (A) (A) (A) (A) (A) (A) (A) (A) (A) (A) (A)
                 (A) (A) (A) (A) (A) (A) (A) (A) (A) (A) (A) (A)
                 (A) (A) (A) (A) (A) (A) (A) (A) (A) (A) (A) (A)
                 (A) (A) (A) (A) (A) (A) (A) (A) (A) (A) (A) (A)
                 (A) (A) (A) (A) (A) (A) (A) (A) (A) (A) (A) (A)
                 (A) (A) (A) (A) (A) (A) (A) (A) (A) (A) (A) (A)
                 (A) (A) (A) (A) (A) (A) (A) (A) (A) (A) (A) (A)
                 (A) (A) (A) (A) (A) (A) (A) (A) (A) (A) (A) (A)
                 (A) (A) (A) (A) (A) (A) (A) (A) (A) (A) (A) (A)
                 (A) (A) (A) (A) (A) (A) (A) (A) (A) (A) (A) (A)
                 (A) (A) (A) (A) (A) (A) (A) (A) (A) (A) (A) (A)
                 (A) (A) (A) (A) (A) (A) (A) (A) (A) (A) (A) (A)
                 (A) (A) (A) (A) (A) (A) (A) (A) (A) (A) (A) (A)
                 (A) (A) (A) (A) (A) (A) (A) (A) (A) (A) (A) (A)
                 (A) (A) (A) (A) (A) (A) (A) (A) (A) (A) (A) (A)
                 (A) (A) (A) (A) (A) (A) (A) (A) (A) (A) (A) (A)
                 (A) (A) (A) (A) (A) (A) (A) (A) (A) (A) (A) (A)
                 (A) (A) (A) (A) (A) (A) (A) (A) (A) (A) (A) (A)
                 (A) (A) (A) (A) (A) (A) (A) (A) (A) (A) (A) (A)
                 (A) (A) (A) (A) (A) (A) (A) (A) (A) (A) (A) (A)
                 (A) (A) (A) (A) (A) (A) (A) (A) (A) (A) (A) (A)
                 (A) (A) (A) (A) (A) (A) (A) (A) (A) (A) (A) (A)
                 (A) (A) (A) (A) (A) (A) (A) (A) (A) (A) (A) (A)
                 (A) (A) (A) (A) (A) (A) (A) (A) (A) (A) (A) (A)
                 (A) (A) (A) (A) (A) (A) (A) (A) (A) (A) (A) (A)
                 (A) (A) (A) (A) (A) (A) (A) (A) (A) (A) (A) (A)
                 (A) (A) (A) (A) (A) (A) (A) (A) (A) (A) (A) (A)
                 (A) (A) (A) (A) (A) (A) (A) (A) (A) (A) (A) (A)
                 (A) (A) (A) (A) (A) (A) (A) (A) (A) (A) (A) (A)
                 (A) (A) (A) (A) (A) (A) (A) (A) (A) (A) (A) (A)
                 (A) (A) (A) (A) (A) (A) (A) (A) (A) (A) (A) (A)
                 (A) (A) (A) (A) (A) (A) (A) (A) (A) (A) (A) (A)
                 (A) (A) (A) (A) (A) (A) (A) (A) (A) (A) (A) (A)
                 (A) (A) (A) (A) (A) (A) (A) (A) (A) (A) (A) (A)
                 (A) (A) (A) (A) (A) (A) (A) (A) (A) (A) (A) (A)
                 (A) (A) (A) (A) (A) (A) (A) (A) (A) (A) (A) (A)
                 (A) (A) (A) (A) (A) (A) (A) (A) (A) (A) (A) (A)
                 (A) (A) (A) (A) (A) (A) (A) (A) (A) (A) (A) (A)
                 (A) (A) (A) (A) (A) (A) (A) (A) (A) (A) (A) (A)
                 (A) (A) (A) (A) (A) (A) (A) (A) (A) (A) (A) (A)
                 (A) (A) (A) (A) (A) (A) (A) (A) (A) (A) (A) (A)
                 (A) (A) (A) (A) (A) (A) (A) (A) (A) (A) (A) (A)
                 (A) (A) (A) (A) (A)
 Beta  Orbitals:
       Occupied  (A) (A) (A) (A) (A) (A) (A) (A) (A) (A) (A) (A)
                 (A) (A) (A) (A) (A) (A) (A) (A) (A) (A) (A) (A)
                 (A) (A) (A) (A) (A) (A) (A) (A) (A) (A) (A) (A)
                 (A) (A) (A) (A) (A) (A) (A) (A) (A) (A) (A) (A)
                 (A) (A) (A) (A) (A) (A) (A) (A) (A) (A) (A) (A)
                 (A) (A) (A) (A) (A)
       Virtual   (A) (A) (A) (A) (A) (A) (A) (A) (A) (A) (A) (A)
                 (A) (A) (A) (A) (A) (A) (A) (A) (A) (A) (A) (A)
                 (A) (A) (A) (A) (A) (A) (A) (A) (A) (A) (A) (A)
                 (A) (A) (A) (A) (A) (A) (A) (A) (A) (A) (A) (A)
                 (A) (A) (A) (A) (A) (A) (A) (A) (A) (A) (A) (A)
                 (A) (A) (A) (A) (A) (A) (A) (A) (A) (A) (A) (A)
                 (A) (A) (A) (A) (A) (A) (A) (A) (A) (A) (A) (A)
                 (A) (A) (A) (A) (A) (A) (A) (A) (A) (A) (A) (A)
                 (A) (A) (A) (A) (A) (A) (A) (A) (A) (A) (A) (A)
                 (A) (A) (A) (A) (A) (A) (A) (A) (A) (A) (A) (A)
                 (A) (A) (A) (A) (A) (A) (A) (A) (A) (A) (A) (A)
                 (A) (A) (A) (A) (A) (A) (A) (A) (A) (A) (A) (A)
                 (A) (A) (A) (A) (A) (A) (A) (A) (A) (A) (A) (A)
                 (A) (A) (A) (A) (A) (A) (A) (A) (A) (A) (A) (A)
                 (A) (A) (A) (A) (A) (A) (A) (A) (A) (A) (A) (A)
                 (A) (A) (A) (A) (A) (A) (A) (A) (A) (A) (A) (A)
                 (A) (A) (A) (A) (A) (A) (A) (A) (A) (A) (A) (A)
                 (A) (A) (A) (A) (A) (A) (A) (A) (A) (A) (A) (A)
                 (A) (A) (A) (A) (A) (A) (A) (A) (A) (A) (A) (A)
                 (A) (A) (A) (A) (A) (A) (A) (A) (A) (A) (A) (A)
                 (A) (A) (A) (A) (A) (A) (A) (A) (A) (A) (A) (A)
                 (A) (A) (A) (A) (A) (A) (A) (A) (A) (A) (A) (A)
                 (A) (A) (A) (A) (A) (A) (A) (A) (A) (A) (A) (A)
                 (A) (A) (A) (A) (A) (A) (A) (A) (A) (A) (A) (A)
                 (A) (A) (A) (A) (A) (A) (A) (A) (A) (A) (A) (A)
                 (A) (A) (A) (A) (A) (A) (A) (A) (A) (A) (A) (A)
                 (A) (A) (A) (A) (A) (A) (A) (A) (A) (A) (A) (A)
                 (A) (A) (A) (A) (A) (A) (A) (A) (A) (A) (A) (A)
                 (A) (A) (A) (A) (A) (A) (A) (A) (A) (A) (A) (A)
                 (A) (A) (A) (A) (A) (A) (A) (A) (A) (A) (A) (A)
                 (A) (A) (A) (A) (A) (A) (A) (A) (A) (A) (A) (A)
                 (A) (A) (A) (A) (A) (A) (A) (A) (A) (A) (A) (A)
                 (A) (A) (A) (A) (A) (A) (A) (A) (A) (A) (A) (A)
                 (A) (A) (A) (A) (A) (A) (A) (A) (A) (A) (A) (A)
                 (A) (A) (A) (A) (A) (A) (A) (A) (A) (A) (A) (A)
                 (A) (A) (A) (A) (A) (A) (A) (A) (A) (A) (A) (A)
                 (A) (A) (A) (A) (A) (A) (A) (A) (A) (A) (A) (A)
                 (A) (A) (A) (A) (A) (A) (A) (A) (A) (A) (A) (A)
                 (A) (A) (A) (A) (A) (A) (A) (A) (A) (A) (A) (A)
                 (A) (A) (A) (A) (A) (A) (A) (A) (A) (A) (A) (A)
                 (A) (A) (A) (A) (A) (A) (A) (A) (A) (A) (A) (A)
                 (A) (A) (A) (A) (A) (A) (A) (A) (A) (A) (A) (A)
                 (A) (A) (A) (A) (A) (A) (A) (A) (A) (A) (A) (A)
                 (A) (A) (A) (A) (A) (A) (A) (A) (A) (A) (A) (A)
                 (A) (A) (A) (A) (A) (A) (A) (A) (A) (A) (A) (A)
                 (A) (A) (A) (A) (A) (A) (A) (A) (A) (A) (A) (A)
                 (A) (A) (A) (A) (A) (A) (A) (A) (A) (A) (A) (A)
                 (A) (A) (A) (A) (A) (A)
 The electronic state is 2-A.
 Alpha  occ. eigenvalues --  -19.67762 -19.67762 -19.64133 -19.61980 -19.61980
 Alpha  occ. eigenvalues --  -14.84919 -10.68257 -10.68257 -10.61415 -10.61413
 Alpha  occ. eigenvalues --  -10.59600 -10.59599 -10.55432 -10.55424 -10.55356
 Alpha  occ. eigenvalues --  -10.53722 -10.53722  -1.22757  -1.22274  -1.20546
 Alpha  occ. eigenvalues --   -1.12982  -1.12933  -0.99284  -0.92782  -0.88021
 Alpha  occ. eigenvalues --   -0.83793  -0.82151  -0.80156  -0.79875  -0.74143
 Alpha  occ. eigenvalues --   -0.73176  -0.67546  -0.65189  -0.61496  -0.60652
 Alpha  occ. eigenvalues --   -0.59254  -0.58586  -0.56543  -0.56117  -0.55841
 Alpha  occ. eigenvalues --   -0.55389  -0.53658  -0.53589  -0.52093  -0.50626
 Alpha  occ. eigenvalues --   -0.49388  -0.48539  -0.47831  -0.47283  -0.47053
 Alpha  occ. eigenvalues --   -0.46341  -0.45445  -0.44946  -0.44406  -0.43896
 Alpha  occ. eigenvalues --   -0.43664  -0.42262  -0.41431  -0.39847  -0.39278
 Alpha  occ. eigenvalues --   -0.37688  -0.37593  -0.35582  -0.35562  -0.34989
 Alpha  occ. eigenvalues --   -0.27773
 Alpha virt. eigenvalues --    0.02066   0.04465   0.04928   0.07631   0.08305
 Alpha virt. eigenvalues --    0.08311   0.09836   0.10345   0.10509   0.11002
 Alpha virt. eigenvalues --    0.12613   0.13002   0.13389   0.14255   0.14503
 Alpha virt. eigenvalues --    0.14794   0.15202   0.15854   0.15871   0.15962
 Alpha virt. eigenvalues --    0.16174   0.18059   0.18333   0.19398   0.20210
 Alpha virt. eigenvalues --    0.20326   0.20993   0.21666   0.21849   0.22626
 Alpha virt. eigenvalues --    0.23557   0.23705   0.24797   0.24944   0.25157
 Alpha virt. eigenvalues --    0.25461   0.25944   0.28504   0.29087   0.29337
 Alpha virt. eigenvalues --    0.29495   0.29606   0.30862   0.31503   0.32447
 Alpha virt. eigenvalues --    0.32872   0.34367   0.34827   0.35416   0.35734
 Alpha virt. eigenvalues --    0.35897   0.36441   0.37335   0.38088   0.38159
 Alpha virt. eigenvalues --    0.38494   0.40391   0.40997   0.41070   0.42067
 Alpha virt. eigenvalues --    0.42255   0.42973   0.43861   0.44564   0.45139
 Alpha virt. eigenvalues --    0.45149   0.45459   0.45620   0.46570   0.46620
 Alpha virt. eigenvalues --    0.47765   0.48239   0.48952   0.49118   0.49361
 Alpha virt. eigenvalues --    0.49467   0.50544   0.50775   0.50782   0.51435
 Alpha virt. eigenvalues --    0.51450   0.52251   0.53293   0.53839   0.54009
 Alpha virt. eigenvalues --    0.54618   0.54761   0.55254   0.57113   0.57422
 Alpha virt. eigenvalues --    0.57501   0.58851   0.60433   0.61325   0.61826
 Alpha virt. eigenvalues --    0.62548   0.62895   0.63910   0.64040   0.65606
 Alpha virt. eigenvalues --    0.67229   0.67800   0.68442   0.69146   0.69664
 Alpha virt. eigenvalues --    0.70398   0.71241   0.71492   0.72864   0.74031
 Alpha virt. eigenvalues --    0.76711   0.77252   0.78272   0.78762   0.79211
 Alpha virt. eigenvalues --    0.81026   0.81764   0.83995   0.84792   0.86785
 Alpha virt. eigenvalues --    0.87879   0.89344   0.90084   0.90688   0.91119
 Alpha virt. eigenvalues --    0.91977   0.92242   0.93444   0.93938   0.94215
 Alpha virt. eigenvalues --    0.94542   0.94916   0.97140   0.98072   0.98087
 Alpha virt. eigenvalues --    0.98844   0.99359   1.00482   1.02392   1.02509
 Alpha virt. eigenvalues --    1.03848   1.04043   1.06116   1.07076   1.07581
 Alpha virt. eigenvalues --    1.08629   1.10125   1.11758   1.12080   1.12389
 Alpha virt. eigenvalues --    1.14807   1.15365   1.16589   1.17738   1.19242
 Alpha virt. eigenvalues --    1.19806   1.20469   1.21329   1.21419   1.23225
 Alpha virt. eigenvalues --    1.23585   1.24821   1.27096   1.27197   1.29204
 Alpha virt. eigenvalues --    1.29540   1.31490   1.32554   1.34322   1.36194
 Alpha virt. eigenvalues --    1.37115   1.37544   1.40088   1.41176   1.42142
 Alpha virt. eigenvalues --    1.44459   1.44517   1.45076   1.48899   1.50274
 Alpha virt. eigenvalues --    1.50957   1.51950   1.52464   1.52530   1.53042
 Alpha virt. eigenvalues --    1.55660   1.55990   1.56275   1.57000   1.58168
 Alpha virt. eigenvalues --    1.58220   1.58879   1.60372   1.61323   1.61944
 Alpha virt. eigenvalues --    1.62588   1.62736   1.63225   1.63637   1.64490
 Alpha virt. eigenvalues --    1.65350   1.65614   1.66702   1.67251   1.68444
 Alpha virt. eigenvalues --    1.68679   1.69325   1.71037   1.71583   1.71946
 Alpha virt. eigenvalues --    1.74672   1.75865   1.76016   1.77719   1.77961
 Alpha virt. eigenvalues --    1.79380   1.79895   1.80658   1.82780   1.84533
 Alpha virt. eigenvalues --    1.85299   1.85301   1.87303   1.87689   1.88435
 Alpha virt. eigenvalues --    1.90051   1.91970   1.94076   1.95288   1.96069
 Alpha virt. eigenvalues --    1.96722   1.97846   1.99966   2.01412   2.01432
 Alpha virt. eigenvalues --    2.01982   2.02792   2.04436   2.04947   2.06317
 Alpha virt. eigenvalues --    2.06416   2.06532   2.07575   2.07862   2.11099
 Alpha virt. eigenvalues --    2.12776   2.13194   2.13206   2.14043   2.14541
 Alpha virt. eigenvalues --    2.15806   2.16109   2.16241   2.16628   2.19070
 Alpha virt. eigenvalues --    2.19798   2.20178   2.23507   2.23585   2.24912
 Alpha virt. eigenvalues --    2.26142   2.26688   2.27275   2.28553   2.30212
 Alpha virt. eigenvalues --    2.30404   2.30570   2.32268   2.32411   2.33872
 Alpha virt. eigenvalues --    2.35101   2.35819   2.37291   2.38357   2.38785
 Alpha virt. eigenvalues --    2.40271   2.40810   2.41464   2.42446   2.42458
 Alpha virt. eigenvalues --    2.43431   2.43857   2.45720   2.46842   2.48286
 Alpha virt. eigenvalues --    2.49012   2.49268   2.52413   2.53838   2.54579
 Alpha virt. eigenvalues --    2.55193   2.55213   2.55647   2.55985   2.57356
 Alpha virt. eigenvalues --    2.58211   2.58841   2.61581   2.61923   2.62450
 Alpha virt. eigenvalues --    2.62954   2.63204   2.64170   2.65385   2.66427
 Alpha virt. eigenvalues --    2.66675   2.67437   2.67720   2.69929   2.70078
 Alpha virt. eigenvalues --    2.71460   2.71480   2.72200   2.73508   2.75444
 Alpha virt. eigenvalues --    2.76403   2.77304   2.78273   2.79649   2.79885
 Alpha virt. eigenvalues --    2.81924   2.82498   2.83438   2.84379   2.85579
 Alpha virt. eigenvalues --    2.85725   2.86231   2.86498   2.88586   2.89362
 Alpha virt. eigenvalues --    2.90542   2.91581   2.96772   2.96943   2.98730
 Alpha virt. eigenvalues --    3.01235   3.03937   3.04026   3.04589   3.05909
 Alpha virt. eigenvalues --    3.06318   3.06697   3.09063   3.09381   3.11331
 Alpha virt. eigenvalues --    3.11741   3.12018   3.13840   3.13938   3.15118
 Alpha virt. eigenvalues --    3.15710   3.16907   3.18749   3.19580   3.19963
 Alpha virt. eigenvalues --    3.21163   3.23074   3.23280   3.23577   3.24468
 Alpha virt. eigenvalues --    3.24866   3.25438   3.25725   3.25779   3.26411
 Alpha virt. eigenvalues --    3.26866   3.28179   3.28588   3.29693   3.29817
 Alpha virt. eigenvalues --    3.30283   3.31606   3.32080   3.32994   3.33717
 Alpha virt. eigenvalues --    3.34391   3.35375   3.35539   3.37330   3.38832
 Alpha virt. eigenvalues --    3.38967   3.40006   3.40124   3.40935   3.41421
 Alpha virt. eigenvalues --    3.41955   3.42545   3.43737   3.45039   3.45095
 Alpha virt. eigenvalues --    3.45772   3.46103   3.47481   3.48168   3.49855
 Alpha virt. eigenvalues --    3.52675   3.52789   3.53394   3.54642   3.55395
 Alpha virt. eigenvalues --    3.56068   3.56804   3.57626   3.59624   3.60044
 Alpha virt. eigenvalues --    3.60759   3.61468   3.63157   3.63789   3.64036
 Alpha virt. eigenvalues --    3.65654   3.67671   3.67809   3.71069   3.72079
 Alpha virt. eigenvalues --    3.75032   3.75260   3.78296   3.78330   3.81148
 Alpha virt. eigenvalues --    3.83974   3.85472   3.88492   3.89334   3.89615
 Alpha virt. eigenvalues --    3.91815   3.94941   3.96218   3.99214   4.00797
 Alpha virt. eigenvalues --    4.01185   4.01770   4.04718   4.07194   4.08502
 Alpha virt. eigenvalues --    4.09567   4.11189   4.13570   4.14682   4.16299
 Alpha virt. eigenvalues --    4.17195   4.19353   4.20459   4.21394   4.22026
 Alpha virt. eigenvalues --    4.23414   4.25125   4.27159   4.29917   4.32831
 Alpha virt. eigenvalues --    4.33369   4.35355   4.36904   4.38192   4.38605
 Alpha virt. eigenvalues --    4.38860   4.39852   4.42444   4.42712   4.43953
 Alpha virt. eigenvalues --    4.45560   4.48038   4.48223   4.49982   4.52541
 Alpha virt. eigenvalues --    4.54666   4.55664   4.63805   4.65026   4.66497
 Alpha virt. eigenvalues --    4.67922   4.69919   4.70943   4.75281   4.77438
 Alpha virt. eigenvalues --    4.78162   4.81560   4.83442   4.91131   4.92811
 Alpha virt. eigenvalues --    4.98424   4.99269   5.04066   5.08163   5.12843
 Alpha virt. eigenvalues --    5.13851   5.15634   5.19470   5.21448   5.22011
 Alpha virt. eigenvalues --    5.23930   5.26348   5.27242   5.27949   5.28990
 Alpha virt. eigenvalues --    5.30745   5.38189   5.39480   5.42422   5.46388
 Alpha virt. eigenvalues --    5.48172   5.48615   5.51851   5.58121   5.59197
 Alpha virt. eigenvalues --    5.60550   5.63457   5.65321   5.75148   5.79212
 Alpha virt. eigenvalues --    5.79963   5.84906   5.93465   5.94552   6.03915
 Alpha virt. eigenvalues --    6.03983   6.09662   6.10247   6.11792   6.12252
 Alpha virt. eigenvalues --    6.13068   6.31067   6.31614   6.33539   6.36900
 Alpha virt. eigenvalues --    6.39305   6.40013   6.46058   6.52320   6.52584
 Alpha virt. eigenvalues --    6.63127   6.63363   6.64453   6.64567   6.77186
 Alpha virt. eigenvalues --    6.77405   6.79681   6.79839   6.81578   6.87062
 Alpha virt. eigenvalues --    6.87779   6.96883   6.98778   6.99879   7.02497
 Alpha virt. eigenvalues --    7.09416   7.11528   7.20607   7.20893   7.36486
 Alpha virt. eigenvalues --    7.37468   7.69589  22.37232  22.37281  22.54593
 Alpha virt. eigenvalues --   22.57163  22.60220  22.63143  22.68399  22.83730
 Alpha virt. eigenvalues --   22.89021  23.28663  23.29208  33.02426  44.08591
 Alpha virt. eigenvalues --   44.12848  44.17114  44.31636  44.31712
  Beta  occ. eigenvalues --  -19.67761 -19.67760 -19.63004 -19.61987 -19.61987
  Beta  occ. eigenvalues --  -14.84113 -10.68239 -10.68239 -10.61457 -10.61455
  Beta  occ. eigenvalues --  -10.59600 -10.59599 -10.55425 -10.55416 -10.55356
  Beta  occ. eigenvalues --  -10.53687 -10.53686  -1.22442  -1.22264  -1.17760
[...]
 .00001341,0.00016885,0.00004453,-0.00000150,-0.00001891,0.00041182,0.0
 0002890,0.00022369,0.00037347,-0.00072206,-0.00022602,-0.00000662,-0.0
 0000969,0.00002287,-0.00001300,-0.00007653,-0.00004033,0.00003774,-0.0
 0010110,0.00010413,-0.00012211,-0.00008406,0.00007928,0.00002091,-0.00
 000565,0.00006535,0.00001385,-0.00002321,-0.00003601,-0.00002968,-0.00
 006227,-0.00013053,-0.00001062,-0.00000140,0.00000127,0.00000218,0.000
 00512,-0.00000665,-0.00000608,0.00000590,0.00000290,-0.05608702,0.0225
 1098,-0.06209156,-0.00103750,0.00010719,0.00004388,-0.00001031,-0.0001
 2397,0.00047801,0.00068596,0.00033134,0.00005237,0.00032416,0.00026139
 ,0.00003755,0.06363518,-0.02633767,0.06755708,-0.00013400,0.00022577,0
 .00008461,0.00023340,-0.00123617,0.00013129,-0.00155637,-0.00284577,-0
 .00228267,0.00015465,0.00028130,-0.00071354,0.00014531,0.00009235,0.00
 019992,-0.00007052,-0.00003017,0.00009285,-0.00008165,-0.00020754,-0.0
 0013561,0.00002425,0.00006658,-0.00002569,-0.00002941,-0.00000389,-0.0
 0074133,0.00020825,0.00020957,0.00053477,0.00013484,-0.00015842,0.0002
 6526,-0.00007960,0.00003517,0.00000667,0.00039338,-0.00027476,-0.00006
 966,0.00026095,-0.00030184,-0.00001376,0.00001800,0.00006977,-0.000085
 53,-0.00006068,0.00015754,-0.00002689,-0.00000895,0.00001252,-0.000104
 96,0.00011580,-0.00008707,-0.00010786,0.00000197,-0.00000289,-0.000024
 53,-0.00000643,0.00001137,0.00002526,0.00001904,-0.00000100,0.00002090
 ,-0.00000096,-0.00000013,-0.00001057,-0.00000098,0.00000933,-0.0000122
 7,0.00000727,-0.00000142,0.00001093,-0.04881023,0.02383700,0.01055727,
 0.00085644,0.00111790,0.00111817,-0.00026249,-0.00015138,-0.00063432,-
 0.00085650,-0.00054575,0.00010924,-0.00024947,-0.00019835,0.00006912,-
 0.00178535,0.02601398,0.01237097,0.04892502,-0.00019469,0.00074513,0.0
 0000169,0.00008441,0.00007130,0.00027790,-0.00011438,0.00239134,0.0006
 5640,0.00020591,0.00073515,0.00072220,0.00009393,0.00005131,0.00018387
 ,-0.00005187,-0.00007357,0.00002144,-0.00006833,-0.00011359,-0.0000248
 6,0.00001954,0.00003584,-0.00000906,0.00006913,-0.00000904,-0.00047495
 ,0.00002518,0.00005698,0.00030351,0.00001307,-0.00005156,0.00016172,-0
 .00001113,0.00000791,-0.00000320,-0.00008380,0.00014465,0.00014715,-0.
 00010641,0.00006977,0.00015385,-0.00001502,0.00002042,-0.00006259,0.00
 003366,0.00015372,0.00000215,-0.00002560,0.00001662,-0.00004328,0.0000
 4337,-0.00012523,-0.00012886,0.00000289,0.00001385,-0.00001168,-0.0000
 1254,0.00000615,0.00002708,-0.00000336,0.00000012,0.00000565,-0.000005
 95,-0.00000179,-0.00000478,0.00000327,0.00000490,-0.00000667,-0.000000
 48,0.00000067,0.00000447,0.02436971,-0.28273930,-0.10119390,-0.0008468
 6,-0.00027752,-0.00081671,0.00023422,0.00017394,0.00012556,-0.00105788
 ,-0.00040800,0.00156528,0.00009818,0.00024270,0.00013270,-0.00019358,-
 0.00891425,-0.00344273,-0.02501308,0.30281414,0.00040404,0.00125771,0.
 00054892,0.00129321,-0.00217887,0.00220951,0.00246048,-0.03148147,-0.0
 1503077,-0.00030850,0.00241359,-0.00652777,0.00029921,0.00036817,-0.00
 011592,0.00014586,-0.00005436,0.00005650,-0.00023417,-0.00006837,-0.00
 004140,0.00016253,-0.00000575,-0.00003209,-0.00017551,-0.00003016,-0.0
 0006817,0.00004616,0.00004463,-0.00002122,0.00004684,-0.00000733,0.000
 01216,-0.00003831,0.00001080,0.00000880,-0.00017159,-0.00196529,-0.000
 91809,0.00002798,0.00026912,0.00014104,-0.00007420,-0.00009704,0.00014
 847,-0.00009121,-0.00017414,0.00011797,-0.00004387,0.00007332,0.000033
 05,-0.00013987,0.00004832,0.00001723,-0.00002453,0.00001168,-0.0000269
 5,0.00002244,0.00001911,0.00006860,-0.00000065,0.00003579,0.00006536,0
 .00000502,0.00000349,-0.00000115,-0.00000605,0.00000029,0.00000493,0.0
 0000210,-0.00000236,0.00000123,0.00929265,-0.09679640,-0.08746893,-0.0
 0112792,-0.00155579,-0.00046264,0.00010805,0.00028617,0.00066162,0.000
 65978,0.00059078,0.00026709,0.00034091,0.00035984,0.00008313,-0.000044
 32,0.00832747,0.00296418,-0.01043335,0.10820936,0.09829168,-0.00008362
 ,0.00025607,-0.00006250,0.00110683,0.00006927,0.00089097,0.00217107,0.
 00349384,-0.00229042,0.00009994,-0.00006235,0.00030242,0.00003311,-0.0
 0004961,0.00029997,-0.00102121,-0.00074112,-0.00078847,0.00005275,-0.0
 0004536,0.00016976,-0.00000013,-0.00006113,-0.00002257,-0.00004257,0.0
 0011160,-0.00026998,0.00012763,-0.00012633,0.00022491,0.00011229,-0.00
 008887,0.00011567,-0.00005055,0.00002649,0.00001860,-0.00000668,0.0000
 9694,-0.00002369,-0.00009663,-0.00005976,0.00014158,-0.00013745,0.0001
 2483,-0.00005843,0.00008639,0.00026273,0.00004056,0.00000860,0.0000037
 7,-0.00021823,-0.00198545,-0.00075035,-0.00168415,-0.00000643,0.000012
 54,0.00002244,-0.00001530,-0.00000075,0.00002562,0.00001165,0.00000071
 ,0.00001384,0.00000135,-0.00000042,-0.00000633,0.00000345,-0.00000058,
 -0.00000380,0.00000330,-0.00000393,0.00000394,-0.18533522,-0.11608884,
 0.07512815,-0.00042097,-0.00042908,-0.00244189,0.00053807,0.00031656,0
 .00019921,-0.00001272,-0.00038547,0.00088316,0.00040501,0.00018848,0.0
 0003536,-0.01790250,-0.01741517,0.01099326,0.00245301,0.00258523,-0.00
 230578,0.19999375,0.00042864,-0.00028709,0.00040126,-0.00026137,-0.000
 00558,-0.00040178,0.00028519,-0.00114396,0.00012493,0.00033682,0.00020
 652,-0.00003044,-0.00036274,0.00032161,-0.00030939,-0.00081473,-0.0003
 7618,-0.00003674,0.00009114,-0.00003460,0.00038294,0.00005264,0.000034
 35,-0.00000325,0.00001621,-0.00009880,0.00101657,-0.00017799,-0.000008
 48,-0.00069046,-0.00015993,0.00018761,-0.00036369,0.00006648,-0.000057
 46,-0.00001359,0.00002905,0.00001752,0.00011619,0.00011908,-0.00002241
 ,0.00009434,0.00009710,-0.00004312,0.00006275,-0.00009469,-0.00042454,
 -0.00018391,0.00004964,-0.00004872,-0.00032677,-0.00041217,0.00026663,
 -0.00059830,-0.00001137,0.00000616,-0.00001912,0.00000075,-0.00001682,
 -0.00003563,0.00001137,0.00000363,0.00002321,0.00000737,0.00000440,0.0
 0001245,-0.00000631,-0.00000598,0.00001584,-0.00000564,0.00000320,-0.0
 0001151,-0.11540431,-0.14418314,0.06227703,-0.00025333,0.00041112,-0.0
 0136491,0.00011177,0.00003685,0.00050333,-0.00035218,0.00004330,0.0005
 9343,0.00021468,0.00030735,0.00000684,0.00877060,0.00785688,-0.0061529
 7,-0.02113323,-0.01499437,0.01215472,0.12882430,0.15209332,-0.00042612
 ,-0.00019789,0.00002041,0.00084407,-0.00081236,0.00222108,0.02544374,0
 .02067627,-0.01468077,0.00028349,0.00080915,0.00158307,0.00003925,-0.0
 0054933,-0.00041373,-0.00008942,0.00009443,-0.00076709,-0.00014159,0.0
 0052902,-0.00046110,-0.00008562,-0.00018704,0.00003543,-0.00036327,0.0
 0015229,-0.00014342,0.00012487,-0.00016341,-0.00001927,0.00016703,-0.0
 0012668,0.00004782,-0.00004818,0.00006612,0.00003032,-0.00006773,0.000
 21941,0.00020600,0.00001595,-0.00014766,-0.00007764,-0.00004606,-0.000
 01656,0.00025241,-0.00018350,-0.00052238,-0.00013286,0.00007554,-0.000
 00073,0.00036574,-0.00114182,-0.00006537,0.00029138,0.00002526,-0.0000
 2707,0.00006860,0.00002561,0.00003564,-0.00002423,-0.00002001,0.000009
 01,-0.00003600,0.00000575,-0.00000490,-0.00000408,0.00000181,-0.000004
 29,-0.00000692,0.00000924,-0.00000502,0.00000328,0.07236288,0.06106518
 ,-0.08550905,-0.00484084,-0.00268063,-0.00452294,0.00247728,0.00154408
 ,-0.00252247,0.00049701,0.00025900,0.00100350,-0.00011473,-0.00011677,
 0.00017679,-0.00537992,-0.00604321,0.00271280,-0.01009329,-0.00651710,
 0.00496653,-0.07939384,-0.06730982,0.09538777,0.00020058,0.00023148,-0
 .00010684,-0.00019842,-0.00035644,-0.00000100,-0.00056142,0.00100174,0
 .00003178,0.00005199,0.00010415,-0.00001809,0.00000770,-0.00000178,0.0
 0000740,0.00001963,0.00000674,0.00000841,-0.00007428,0.00013864,0.0000
 5536,0.00001087,-0.00000005,-0.00000069,0.00000422,-0.00006725,-0.0000
 1358,-0.00001172,0.00001967,0.00000598,-0.00002759,0.00003545,-0.00000
 759,0.00000570,-0.00000604,-0.00000608,-0.00000443,0.,-0.00001605,0.00
 001412,0.00000495,0.00001254,-0.00000627,-0.00000366,-0.00000413,-0.00
 000449,0.00000164,0.00000372,-0.00000386,0.00000415,-0.00000632,0.0000
 0777,0.00000023,-0.00000369,-0.00000098,-0.00000326,-0.00000604,0.0000
 0345,0.00000630,0.00000181,-0.00000093,0.00000199,0.00000216,0.0000001
 8,0.00000167,0.00000096,-0.00000290,0.00000110,0.00000306,-0.00000217,
 0.00000112,0.00000001,-0.00004870,-0.00007509,-0.00001453,0.00295883,-
 0.00026459,0.00478462,-0.00030986,-0.00044676,-0.00172972,0.00585220,-
 0.03008951,0.01796771,-0.11024537,0.09588033,-0.07269423,-0.00006629,0
 .00006072,-0.00005696,0.00003720,-0.00001572,-0.00001160,-0.00005611,-
 0.00001292,0.00000200,0.11502576,-0.00007581,0.00002575,-0.00010559,-0
 .00014293,-0.00012968,-0.00002621,-0.00018287,0.00038338,-0.00009226,0
 .00006103,0.00005613,-0.00000571,-0.00000137,0.00000957,-0.00001414,-0
 .00000002,-0.00000608,0.00000157,-0.00002189,0.00007125,0.00005993,0.0
 0000126,-0.00000322,0.00000128,0.00003037,-0.00004898,0.00002091,-0.00
 001684,0.00001108,-0.00001586,-0.00003583,0.00003294,-0.00002030,0.000
 01071,-0.00000651,-0.00000271,-0.00001039,-0.00003585,-0.00003475,-0.0
 0000244,0.00002173,-0.00000094,-0.00000793,-0.00000694,-0.00000319,0.0
 0000397,0.00000896,-0.00000002,-0.00000628,-0.00000108,-0.00000463,0.0
 0000832,0.00000364,-0.00000743,-0.00000932,0.00000490,-0.00000028,0.00
 000058,-0.00000598,0.00000429,0.00000016,0.00000199,-0.00000513,-0.000
 00038,0.00000083,0.00000105,-0.00000110,0.00000040,0.00000186,-0.00000
 265,0.00000133,-0.00000077,0.00003392,-0.00005283,0.00000217,0.0030162
 7,0.00141366,0.00766921,0.00095650,0.00087795,-0.00317146,-0.00442226,
 -0.02204013,0.01260498,0.08671067,-0.18423991,0.10076378,-0.00006542,0
 .00006910,-0.00007177,0.00003709,-0.00001242,-0.00003566,-0.00006686,-
 0.00000672,-0.00002265,-0.08965062,0.20241302,0.00004667,-0.00010596,-
 0.00003550,-0.00004887,0.00008151,-0.00002198,-0.00005263,0.00011971,-
 0.00010948,0.00002291,-0.00004553,0.00001866,-0.00001349,0.00000890,0.
 00000568,-0.00000993,0.00000640,-0.00001263,0.00000849,-0.00005815,-0.
 00000284,-0.00000410,-0.00000115,0.00001035,-0.00006156,0.00006596,0.0
 0001853,0.00003125,-0.00003669,-0.00002368,0.00005394,-0.00005012,-0.0
 0000026,-0.00002086,0.00002789,0.00001662,-0.00001577,-0.00002320,0.00
 000097,0.00000434,-0.00001148,-0.00001443,0.00001228,0.00000611,0.0000
 0238,0.00000803,-0.00000135,-0.00000833,0.00000767,-0.00000389,0.00000
 750,-0.00000959,0.00000098,0.00000281,-0.00001227,0.00000666,0.0000049
 2,-0.00000380,-0.00001584,-0.00000692,0.00000703,0.00000357,-0.0000066
 4,0.00000146,-0.00000345,-0.00000322,0.00000306,-0.00000186,-0.0000049
 1,0.00000257,-0.00000168,0.00000117,0.00007754,0.00011014,-0.00003354,
 -0.00204050,-0.00224489,-0.00066906,0.00040613,0.00033267,0.00073414,0
 .00287739,0.01526880,-0.00908918,-0.06750608,0.10302128,-0.12951206,0.
 00004436,-0.00008288,0.00004964,-0.00004242,0.00003037,0.00000381,0.00
 006438,0.00000743,-0.00002705,0.06906196,-0.11929339,0.13809203,-0.000
 08568,0.00008449,0.00001737,-0.00006739,-0.00019422,0.00006100,-0.0001
 4964,-0.00038168,-0.00097044,-0.00028601,-0.00003973,0.00018216,0.0000
 4824,-0.00007784,-0.00006060,0.00001694,-0.00000127,-0.00001198,0.0000
 0481,0.00009151,0.00002938,-0.00001617,-0.00000630,-0.00000040,0.00008
 551,-0.00008580,-0.00005659,-0.00003937,0.00003993,0.00005021,-0.00006
 850,0.00005501,0.00000613,0.00002773,-0.00002607,-0.00001678,0.0000029
 0,0.00002184,0.00000493,0.00001145,-0.00001008,0.00000306,-0.00003534,
 -0.00002973,0.00000647,-0.00001445,-0.00001430,0.00000907,-0.00000923,
 -0.00000311,-0.00000044,0.00000267,0.00000201,0.00000135,0.00000727,0.
 00000049,0.00000210,0.00000330,0.00000564,0.00000924,-0.00000747,-0.00
 000419,-0.00000609,-0.00000279,0.00000214,0.00000293,-0.00000217,0.000
 00264,0.00000257,-0.00000343,0.00000289,-0.00000082,-0.00000129,-0.000
 01920,-0.00007972,-0.00130265,-0.00133481,0.00551187,0.00117330,0.0003
 9237,-0.00087187,-0.02194701,-0.01775630,-0.01838011,-0.11401716,-0.04
 754407,-0.10340581,0.00000184,-0.00001587,-0.00000415,-0.00004742,-0.0
 0000510,0.00001372,-0.00000371,0.00000781,0.00005924,-0.00548027,-0.00
 546289,-0.01085901,0.12945793,-0.00003459,0.00005559,-0.00005325,-0.00
 016943,-0.00023344,0.00008683,-0.00024980,-0.00004978,-0.00081661,-0.0
 0015688,0.00001460,0.00010836,0.00003117,-0.00004308,-0.00004069,0.000
 01215,0.00000135,-0.00001203,-0.00000888,0.00009438,0.00004707,-0.0000
 0885,-0.00001005,0.00000237,0.00005169,-0.00006476,-0.00002434,-0.0000
 2781,0.00001731,0.00002221,-0.00004822,0.00003851,-0.00000474,0.000019
 56,-0.00001045,-0.00000668,0.00001268,0.00001017,-0.00000247,0.0000092
 2,-0.00000736,-0.00000811,-0.00002325,-0.00002045,0.00000368,-0.000010
 11,-0.00001163,0.00000758,-0.00000675,-0.00000334,0.00000044,0.0000005
 1,0.00000337,0.00000102,0.00000142,0.00000067,0.00000236,0.00000393,0.
 00000320,0.00000502,-0.00000548,-0.00000072,-0.00000590,-0.00000184,0.
 00000053,0.00000181,-0.00000112,0.00000133,0.00000167,-0.00000288,0.00
 000200,-0.00000098,-0.00004928,0.00004854,-0.00005927,-0.00138862,-0.0
 0108368,0.00447706,0.00037149,0.00100821,-0.00070156,-0.01829120,-0.01
 459881,-0.01547115,-0.04733651,-0.09081596,-0.08105008,-0.00000077,-0.
 00004953,-0.00000468,-0.00001778,0.00000849,0.00000586,0.00001529,-0.0
 0001209,0.00004974,0.01105701,0.01230781,0.01717267,0.06509995,0.09888
 835,-0.00006833,-0.00006431,0.00004344,0.00006725,0.00014207,0.0000048
 4,0.00031565,0.00022275,0.00055753,0.00006567,0.00001732,-0.00006594,-
 0.00000135,0.00003415,0.00003310,-0.00001097,-0.00000768,0.00000301,0.
 00003709,-0.00001360,-0.00001962,-0.00000241,-0.00000232,-0.00000657,0
 .00004454,-0.00001478,-0.00000179,-0.00002213,0.00000910,0.00001169,-0
 .00003227,0.00002015,0.00000124,0.00001812,-0.00001428,-0.00000745,0.0
 0001807,0.00002851,0.00002938,-0.00000421,0.00001286,-0.00000114,0.000
 00638,0.00000789,-0.00000470,-0.00000542,-0.00000222,0.00000513,-0.000
 00487,-0.00000114,-0.00000243,0.00000423,-0.00000023,-0.00000029,0.000
 01093,-0.00000447,0.00000123,0.00000394,0.00001151,0.00000328,-0.00000
 716,-0.00000343,0.00000290,-0.00000173,0.00000027,0.00000212,0.0000000
 1,0.00000077,0.00000116,-0.00000082,0.00000098,-0.00000151,-0.00008439
 ,-0.00005620,0.00007162,0.00255617,0.00200742,-0.00407950,-0.00169795,
 -0.00135821,0.00173118,0.01399328,0.01121139,0.01469294,-0.11443608,-0
 .09012476,-0.22726468,-0.00001792,0.00002936,-0.00000969,0.00002677,-0
 .00003055,-0.00001767,-0.00001471,-0.00001406,-0.00000644,-0.00573816,
 -0.00755721,-0.01076062,0.11420539,0.08983431,0.23652357,-0.00014581,0
 .00001158,-0.00007262,0.00016013,0.00008052,-0.00003381,0.00039384,-0.
 00076294,-0.00016669,-0.00023165,0.00002361,0.00010860,0.00002727,-0.0
 0006415,-0.00009557,-0.00000074,-0.00000075,-0.00000404,0.00003651,0.0
 0001166,0.00002657,-0.00002056,-0.00000267,0.00000364,0.00006816,-0.00
 003710,0.00002517,-0.00003088,0.00000921,-0.00001092,-0.00005182,0.000
 03601,-0.00001931,0.00002202,-0.00001407,-0.00000597,-0.00002004,-0.00
 003175,-0.00004074,0.00000429,-0.00000854,0.00003387,-0.00003630,-0.00
 002756,0.00000411,0.00000341,0.00000558,0.00000399,-0.00000546,-0.0000
 0829,-0.00000409,0.00001091,0.00000422,-0.00000628,-0.00000097,0.00000
 595,0.00000501,0.00000135,-0.00000737,0.00000574,-0.00000378,-0.000002
 97,-0.00001062,-0.00000177,0.00000047,0.00000223,0.00000018,0.00000037
 ,0.00000146,-0.00000279,0.00000184,-0.00000173,-0.00001553,0.00006241,
 -0.00004215,0.00235330,0.00292429,0.00852483,0.00085620,0.00063416,-0.
 00368931,-0.02640488,0.00168956,0.01613089,-0.14314851,0.08872576,0.08
 822967,0.00000138,0.00004225,-0.00002383,0.00005222,-0.00005589,-0.000
 09955,-0.00003095,-0.00005773,-0.00002408,-0.00709413,0.00931526,0.007
 95942,0.01274326,-0.00884600,-0.00922264,0.16051214,-0.00011598,0.0000
 8320,-0.00004933,0.00020366,0.00010430,0.00003182,0.00069357,-0.001005
 21,-0.00001603,-0.00025484,0.00002736,0.00011119,0.00002944,-0.0000712
 0,-0.00009267,0.00001703,-0.00000281,0.00000395,-0.00000266,0.00000589
 ,0.00000528,0.00000467,-0.00000155,-0.00000383,0.00003878,-0.00003201,
 -0.00000254,-0.00001611,0.00002124,0.00000784,-0.00002701,0.00002817,-
 0.00000315,0.00000750,-0.00001567,-0.00000873,0.00001029,0.00000494,-0
 .00001502,-0.00000155,-0.00001266,0.00002984,-0.00003414,-0.00002481,0
 .00000758,-0.00000571,0.00000052,0.00000632,-0.00000459,0.00000195,-0.
 00000352,0.00000524,0.00000107,-0.00000185,0.00000014,-0.00000179,-0.0
 0000348,0.00000042,0.00000440,0.00000490,-0.00000138,0.00000007,0.0000
 0140,-0.00000047,0.00000276,0.00000123,-0.00000167,0.00000083,0.000003
 45,-0.00000215,0.00000053,-0.00000028,-0.00009583,0.00001514,-0.000047
 79,0.00043566,0.00201201,0.00300552,-0.00089466,-0.00055449,-0.0011827
 3,-0.02293480,0.01159387,0.01634771,0.09693838,-0.14091216,-0.09191110
 ,0.00000655,0.00002443,-0.00000528,0.00003341,-0.00004446,-0.00003723,
 -0.00001267,-0.00003040,0.00001154,0.01243459,-0.01111911,-0.01428951,
 0.00720384,-0.00548926,-0.00432138,-0.09365693,0.14538489,0.00011701,-
 0.00000218,0.00004454,-0.00007444,-0.00001245,-0.00002885,0.00012267,0
 .00000697,-0.00005598,0.00010602,-0.00006755,-0.00000610,-0.00002846,0
 .00002940,0.00001096,-0.00000250,-0.00000232,-0.00000143,-0.00001725,-
 0.00003695,-0.00000302,0.00000701,0.00000648,0.00000100,-0.00007267,0.
 00005069,-0.00000639,0.00003724,-0.00001555,-0.00000802,0.00005783,-0.
 00004421,0.00001041,-0.00002685,0.00001930,0.00000992,-0.00001580,-0.0
 0002399,0.00000244,-0.00000807,0.00002376,-0.00001014,0.00001454,0.000
 00952,0.00000219,0.00001069,0.00000513,-0.00001078,0.00000554,0.000004
 73,0.00000515,-0.00000921,-0.00000209,0.00000201,-0.00001057,0.0000047
 7,-0.00000115,-0.00000633,-0.00001244,-0.00000408,0.00000903,0.0000032
 1,0.00000127,0.00000223,-0.00000123,-0.00000309,0.00000096,-0.00000105
 ,-0.00000321,0.00000293,-0.00000181,0.00000212,0.00012576,-0.00001166,
 -0.00001171,-0.00253746,-0.00160930,-0.00100770,-0.00011309,0.00032745
 ,0.00077572,0.01498115,0.00075539,-0.00940139,0.09183327,-0.08769274,-
 0.13896043,0.00000241,-0.00003033,-0.00000051,-0.00006573,0.00003858,0
 .00006096,0.00001100,0.00007307,-0.00001784,-0.01151419,0.00936102,0.0
 1137312,0.01454658,-0.01356752,-0.01146931,-0.10749125,0.09241589,0.14
 870935\\0.00000804,0.00004284,-0.00000198,-0.00001074,-0.00002829,-0.0
 0000130,0.00000325,0.00001908,0.00000695,0.00000161,-0.00000310,-0.000
 00156,0.00000002,0.00000201,0.00000313,0.00000041,-0.00000350,-0.00000
 299,-0.00003405,-0.00001687,-0.00000442,0.00000231,0.00000060,0.000002
 52,0.00006156,0.00007550,-0.00000235,-0.00001875,-0.00003760,0.0000370
 3,-0.00001608,-0.00001830,-0.00003585,-0.00000760,-0.00000277,0.000014
 63,-0.00000359,-0.00000052,-0.00000825,0.00000064,-0.00000463,-0.00000
 173,0.00000017,0.00000309,-0.00000125,0.00000014,0.00000238,0.00000110
 ,-0.00000031,-0.00000543,0.00000131,0.00000381,0.00000086,0.00001123,-
 0.00000276,0.00000439,-0.00000129,0.00000151,-0.00000256,0.00000113,-0
 .00000317,-0.00000020,0.00000126,0.00000225,-0.00000172,0.00000232,0.0
 0000746,0.00000034,0.00000151,0.00000606,-0.00000571,-0.00000094,-0.00
 000117,0.00000045,-0.00000178,0.00003910,-0.00006486,0.00000864,-0.000
 02107,0.00002474,-0.00004250,-0.00001389,0.00002560,0.00003486,0.00000
 787,-0.00000261,-0.00001439,0.00000163,-0.00000028,-0.00000166,0.00000
 257,0.00000509,0.00000159,-0.00000251,-0.00000229,-0.00000171,-0.00000
 465,0.00000168,-0.00000167,-0.00000666,-0.00000453,0.00000077,-0.00000
 342,-0.00000289,-0.00000236\\\@
 The archive entry for this job was punched.


 I think that all right-thinking people in this
 country are sick and tired of being told that
 ordinary, decent people are fed up in this country
 with being sick and tired.  I'm certainly not!
 But I'm sick and tired of being told that I am!
                               -- Monty Python
 Job cpu time:       1 days 22 hours 44 minutes 49.9 seconds.
 Elapsed time:       0 days  2 hours 20 minutes 15.5 seconds.
 File lengths (MBytes):  RWF=   2256 Int=      0 D2E=      0 Chk=     46 Scr=      1
 Normal termination of Gaussian 16 at Thu Jan  9 23:54:34 2025.
