 Entering Gaussian System, Link 0=g16
 Input=gjfs/data_set_3-catalyst-Mix_2_opt.gjf
 Output=gjfs/data_set_3-catalyst-Mix_2_opt.log
 Initial command:
 /usr/local/intel/g16/l1.exe "/scr/Gau-1200495.inp" -scrdir="/scr/"
 Entering Link 1 = /usr/local/intel/g16/l1.exe PID=   1200497.
  
 Copyright (c) 1988-2019, Gaussian, Inc.  All Rights Reserved.
  
 This is part of the Gaussian(R) 16 program.  It is based on
 the Gaussian(R) 09 system (copyright 2009, Gaussian, Inc.),
 the Gaussian(R) 03 system (copyright 2003, Gaussian, Inc.),
 the Gaussian(R) 98 system (copyright 1998, Gaussian, Inc.),
 the Gaussian(R) 94 system (copyright 1995, Gaussian, Inc.),
 the Gaussian 92(TM) system (copyright 1992, Gaussian, Inc.),
 the Gaussian 90(TM) system (copyright 1990, Gaussian, Inc.),
 the Gaussian 88(TM) system (copyright 1988, Gaussian, Inc.),
 the Gaussian 86(TM) system (copyright 1986, Carnegie Mellon
 University), and the Gaussian 82(TM) system (copyright 1983,
 Carnegie Mellon University). Gaussian is a federally registered
 trademark of Gaussian, Inc.
  
 This software contains proprietary and confidential information,
 including trade secrets, belonging to Gaussian, Inc.
  
 This software is provided under written license and may be
 used, copied, transmitted, or stored only in accord with that
 written license.
  
 The following legend is applicable only to US Government
 contracts under FAR:
  
                    RESTRICTED RIGHTS LEGEND
  
 Use, reproduction and disclosure by the US Government is
 subject to restrictions as set forth in subparagraphs (a)
 and (c) of the Commercial Computer Software - Restricted
 Rights clause in FAR 52.227-19.
  
 Gaussian, Inc.
 340 Quinnipiac St., Bldg. 40, Wallingford CT 06492
  
  
 ---------------------------------------------------------------
 Warning -- This program may not be used in any manner that
 competes with the business of Gaussian, Inc. or will provide
 assistance to any competitor of Gaussian, Inc.  The licensee
 of this program is prohibited from giving any competitor of
 Gaussian, Inc. access to this program.  By using this program,
 the user acknowledges that Gaussian, Inc. is engaged in the
 business of creating and licensing software in the field of
 computational chemistry and represents and warrants to the
 licensee that it is not a competitor of Gaussian, Inc. and that
 it will not use this program in any manner prohibited above.
 ---------------------------------------------------------------
  

 Cite this work as:
 Gaussian 16, Revision C.01,
 M. J. Frisch, G. W. Trucks, H. B. Schlegel, G. E. Scuseria, 
 M. A. Robb, J. R. Cheeseman, G. Scalmani, V. Barone, 
 G. A. Petersson, H. Nakatsuji, X. Li, M. Caricato, A. V. Marenich, 
 J. Bloino, B. G. Janesko, R. Gomperts, B. Mennucci, H. P. Hratchian, 
 J. V. Ortiz, A. F. Izmaylov, J. L. Sonnenberg, D. Williams-Young, 
 F. Ding, F. Lipparini, F. Egidi, J. Goings, B. Peng, A. Petrone, 
 T. Henderson, D. Ranasinghe, V. G. Zakrzewski, J. Gao, N. Rega, 
 G. Zheng, W. Liang, M. Hada, M. Ehara, K. Toyota, R. Fukuda, 
 J. Hasegawa, M. Ishida, T. Nakajima, Y. Honda, O. Kitao, H. Nakai, 
 T. Vreven, K. Throssell, J. A. Montgomery, Jr., J. E. Peralta, 
 F. Ogliaro, M. J. Bearpark, J. J. Heyd, E. N. Brothers, K. N. Kudin, 
 V. N. Staroverov, T. A. Keith, R. Kobayashi, J. Normand, 
 K. Raghavachari, A. P. Rendell, J. C. Burant, S. S. Iyengar, 
 J. Tomasi, M. Cossi, J. M. Millam, M. Klene, C. Adamo, R. Cammi, 
 J. W. Ochterski, R. L. Martin, K. Morokuma, O. Farkas, 
 J. B. Foresman, and D. J. Fox, Gaussian, Inc., Wallingford CT, 2019.
 
 ******************************************
 Gaussian 16:  ES64L-G16RevC.01  3-Jul-2019
                 9-Jan-2025 
 ******************************************
 %nprocshared=20
 Will use up to   20 processors via shared memory.
 %mem=30GB
 %chk=outputs/data_set_3-catalyst-Mix_2_opt.chk
 ----------------------------------
 #p M062X/DEF2TZVP opt freq pop=NBO
 ----------------------------------
 1/18=20,19=15,26=3,38=1/1,3;
 2/9=110,12=2,17=6,18=5,40=1/2;
 3/5=44,7=101,11=2,25=1,30=1,71=1,74=-55/1,2,3;
 4//1;
 5/5=2,38=5/2;
 6/7=2,8=2,9=2,10=2,28=1,40=1/1,7;
 7//1,2,3,16;
 1/18=20,19=15,26=3/3(2);
 2/9=110/2;
 99//99;
 2/9=110/2;
 3/5=44,7=101,11=2,25=1,30=1,71=1,74=-55/1,2,3;
 4/5=5,16=3,69=1/1;
 5/5=2,38=5/2;
 7//1,2,3,16;
 1/18=20,19=15,26=3/3(-5);
 2/9=110/2;
 6/7=2,8=2,9=2,10=2,19=2,28=1,40=1/1,7;
 99/9=1/99;
 Leave Link    1 at Thu Jan  9 22:51:18 2025, MaxMem=  4026531840 cpu:               1.0 elap:               0.2
 (Enter /usr/local/intel/g16/l101.exe)
 -----------------------------
 data_set_3-catalyst-Mix_2_opt
 -----------------------------
 Symbolic Z-matrix:
 Charge =  0 Multiplicity = 2
 O                     0.80701  -1.56241  -1.80678 
 N                     0.55248  -1.19407  -0.56777 
 C                    -0.85876  -1.22975  -0.10399 
 C                    -0.89906  -1.53169   1.40944 
 C                     0.00072  -0.58351   2.20962 
 C                     1.4494   -0.68701   1.70986 
 C                     1.63683  -0.4839    0.18643 
 C                     2.99077  -1.06669  -0.25187 
 C                     1.61657   1.00863  -0.22931 
 C                    -1.62283  -2.32258  -0.88314 
 C                    -1.54098   0.11221  -0.43878 
 O                     2.19934   1.46763  -1.21149 
 O                     0.88515   1.79133   0.62555 
 O                    -1.13494   0.95327  -1.24351 
 O                    -2.7305    0.24298   0.22545 
 C                     0.68092   3.18198   0.21842 
 C                    -3.51926   1.44184  -0.05938 
 H                    -0.56183  -2.56744   1.54354 
 H                    -1.93542  -1.46808   1.74769 
 H                    -0.03312  -0.85386   3.27036 
 H                    -0.35627   0.44626   2.12154 
 H                     1.82871  -1.69002   1.94392 
 H                     2.08688   0.03244   2.23252 
 H                     3.18558  -0.84674  -1.3004 
 H                     2.98629  -2.15072  -0.10887 
 H                     3.7866   -0.62736   0.3586 
 H                    -2.63879  -2.39718  -0.48626 
 H                    -1.11202  -3.28063  -0.75624 
 H                    -1.65891  -2.09737  -1.94985 
 H                     0.12129   3.19949  -0.71925 
 H                     1.64277   3.68248   0.08579 
 H                     0.11302   3.6353    1.02949 
 H                    -2.95581   2.33487   0.22193 
 H                    -4.41796   1.33988   0.54542 
 H                    -3.76278   1.48775  -1.12326 
 
 ITRead=  0  0  0  0  0  0  0  0  0  0  0  0  0  0  0  0  0  0  0  0
 ITRead=  0  0  0  0  0  0  0  0  0  0  0  0  0  0  0
 MicOpt= -1 -1 -1 -1 -1 -1 -1 -1 -1 -1 -1 -1 -1 -1 -1 -1 -1 -1 -1 -1
 MicOpt= -1 -1 -1 -1 -1 -1 -1 -1 -1 -1 -1 -1 -1 -1 -1
 NAtoms=     35 NQM=       35 NQMF=       0 NMMI=      0 NMMIF=      0
                NMic=       0 NMicF=      0.
                    Isotopes and Nuclear Properties:
 (Nuclear quadrupole moments (NQMom) in fm**2, nuclear magnetic moments (NMagM)
  in nuclear magnetons)

  Atom         1           2           3           4           5           6           7           8           9          10
 IAtWgt=          16          14          12          12          12          12          12          12          12          12
 AtmWgt=  15.9949146  14.0030740  12.0000000  12.0000000  12.0000000  12.0000000  12.0000000  12.0000000  12.0000000  12.0000000
 NucSpn=           0           2           0           0           0           0           0           0           0           0
 AtZEff=  -0.0000000  -0.0000000  -0.0000000  -0.0000000  -0.0000000  -0.0000000  -0.0000000  -0.0000000  -0.0000000  -0.0000000
 NQMom=    0.0000000   2.0440000   0.0000000   0.0000000   0.0000000   0.0000000   0.0000000   0.0000000   0.0000000   0.0000000
 NMagM=    0.0000000   0.4037610   0.0000000   0.0000000   0.0000000   0.0000000   0.0000000   0.0000000   0.0000000   0.0000000
 AtZNuc=   8.0000000   7.0000000   6.0000000   6.0000000   6.0000000   6.0000000   6.0000000   6.0000000   6.0000000   6.0000000

  Atom        11          12          13          14          15          16          17          18          19          20
 IAtWgt=          12          16          16          16          16          12          12           1           1           1
 AtmWgt=  12.0000000  15.9949146  15.9949146  15.9949146  15.9949146  12.0000000  12.0000000   1.0078250   1.0078250   1.0078250
 NucSpn=           0           0           0           0           0           0           0           1           1           1
 AtZEff=  -0.0000000  -0.0000000  -0.0000000  -0.0000000  -0.0000000  -0.0000000  -0.0000000  -0.0000000  -0.0000000  -0.0000000
 NQMom=    0.0000000   0.0000000   0.0000000   0.0000000   0.0000000   0.0000000   0.0000000   0.0000000   0.0000000   0.0000000
 NMagM=    0.0000000   0.0000000   0.0000000   0.0000000   0.0000000   0.0000000   0.0000000   2.7928460   2.7928460   2.7928460
 AtZNuc=   6.0000000   8.0000000   8.0000000   8.0000000   8.0000000   6.0000000   6.0000000   1.0000000   1.0000000   1.0000000

  Atom        21          22          23          24          25          26          27          28          29          30
 IAtWgt=           1           1           1           1           1           1           1           1           1           1
 AtmWgt=   1.0078250   1.0078250   1.0078250   1.0078250   1.0078250   1.0078250   1.0078250   1.0078250   1.0078250   1.0078250
 NucSpn=           1           1           1           1           1           1           1           1           1           1
 AtZEff=  -0.0000000  -0.0000000  -0.0000000  -0.0000000  -0.0000000  -0.0000000  -0.0000000  -0.0000000  -0.0000000  -0.0000000
 NQMom=    0.0000000   0.0000000   0.0000000   0.0000000   0.0000000   0.0000000   0.0000000   0.0000000   0.0000000   0.0000000
 NMagM=    2.7928460   2.7928460   2.7928460   2.7928460   2.7928460   2.7928460   2.7928460   2.7928460   2.7928460   2.7928460
 AtZNuc=   1.0000000   1.0000000   1.0000000   1.0000000   1.0000000   1.0000000   1.0000000   1.0000000   1.0000000   1.0000000

  Atom        31          32          33          34          35
 IAtWgt=           1           1           1           1           1
 AtmWgt=   1.0078250   1.0078250   1.0078250   1.0078250   1.0078250
 NucSpn=           1           1           1           1           1
 AtZEff=  -0.0000000  -0.0000000  -0.0000000  -0.0000000  -0.0000000
 NQMom=    0.0000000   0.0000000   0.0000000   0.0000000   0.0000000
 NMagM=    2.7928460   2.7928460   2.7928460   2.7928460   2.7928460
 AtZNuc=   1.0000000   1.0000000   1.0000000   1.0000000   1.0000000
 Leave Link  101 at Thu Jan  9 22:51:19 2025, MaxMem=  4026531840 cpu:              25.8 elap:               1.3
 (Enter /usr/local/intel/g16/l103.exe)

 GradGradGradGradGradGradGradGradGradGradGradGradGradGradGradGradGradGrad
 Berny optimization.
 Initialization pass.
                           ----------------------------
                           !    Initial Parameters    !
                           ! (Angstroms and Degrees)  !
 --------------------------                            --------------------------
 ! Name  Definition              Value          Derivative Info.                !
 --------------------------------------------------------------------------------
 ! R1    R(1,2)                  1.3174         estimate D2E/DX2                !
 ! R2    R(2,3)                  1.4859         estimate D2E/DX2                !
 ! R3    R(2,7)                  1.4997         estimate D2E/DX2                !
 ! R4    R(3,4)                  1.5438         estimate D2E/DX2                !
 ! R5    R(3,10)                 1.5444         estimate D2E/DX2                !
 ! R6    R(3,11)                 1.5422         estimate D2E/DX2                !
 ! R7    R(4,5)                  1.5326         estimate D2E/DX2                !
 ! R8    R(4,18)                 1.0975         estimate D2E/DX2                !
 ! R9    R(4,19)                 1.092          estimate D2E/DX2                !
 ! R10   R(5,6)                  1.536          estimate D2E/DX2                !
 ! R11   R(5,20)                 1.0952         estimate D2E/DX2                !
 ! R12   R(5,21)                 1.0934         estimate D2E/DX2                !
 ! R13   R(6,7)                  1.5483         estimate D2E/DX2                !
 ! R14   R(6,22)                 1.0976         estimate D2E/DX2                !
 ! R15   R(6,23)                 1.0941         estimate D2E/DX2                !
 ! R16   R(7,8)                  1.5378         estimate D2E/DX2                !
 ! R17   R(7,9)                  1.5495         estimate D2E/DX2                !
 ! R18   R(8,24)                 1.0889         estimate D2E/DX2                !
 ! R19   R(8,25)                 1.0934         estimate D2E/DX2                !
 ! R20   R(8,26)                 1.095          estimate D2E/DX2                !
 ! R21   R(9,12)                 1.2308         estimate D2E/DX2                !
 ! R22   R(9,13)                 1.3705         estimate D2E/DX2                !
 ! R23   R(10,27)                1.0933         estimate D2E/DX2                !
 ! R24   R(10,28)                1.0931         estimate D2E/DX2                !
 ! R25   R(10,29)                1.0908         estimate D2E/DX2                !
 ! R26   R(11,14)                1.2328         estimate D2E/DX2                !
 ! R27   R(11,15)                1.3687         estimate D2E/DX2                !
 ! R28   R(13,16)                1.4633         estimate D2E/DX2                !
 ! R29   R(15,17)                1.4631         estimate D2E/DX2                !
 ! R30   R(16,30)                1.0921         estimate D2E/DX2                !
 ! R31   R(16,31)                1.0924         estimate D2E/DX2                !
 ! R32   R(16,32)                1.089          estimate D2E/DX2                !
 ! R33   R(17,33)                1.0927         estimate D2E/DX2                !
 ! R34   R(17,34)                1.088          estimate D2E/DX2                !
 ! R35   R(17,35)                1.0924         estimate D2E/DX2                !
 ! A1    A(1,2,3)              118.0553         estimate D2E/DX2                !
 ! A2    A(1,2,7)              117.7539         estimate D2E/DX2                !
 ! A3    A(3,2,7)              122.7606         estimate D2E/DX2                !
 ! A4    A(2,3,4)              109.6012         estimate D2E/DX2                !
 ! A5    A(2,3,10)             109.2323         estimate D2E/DX2                !
 ! A6    A(2,3,11)             109.3591         estimate D2E/DX2                !
 ! A7    A(4,3,10)             110.0764         estimate D2E/DX2                !
 ! A8    A(4,3,11)             111.8055         estimate D2E/DX2                !
 ! A9    A(10,3,11)            106.6998         estimate D2E/DX2                !
 ! A10   A(3,4,5)              112.0556         estimate D2E/DX2                !
 ! A11   A(3,4,18)             107.2379         estimate D2E/DX2                !
 ! A12   A(3,4,19)             108.4837         estimate D2E/DX2                !
 ! A13   A(5,4,18)             109.8573         estimate D2E/DX2                !
 ! A14   A(5,4,19)             111.0639         estimate D2E/DX2                !
 ! A15   A(18,4,19)            107.9833         estimate D2E/DX2                !
 ! A16   A(4,5,6)              110.0085         estimate D2E/DX2                !
 ! A17   A(4,5,20)             109.5615         estimate D2E/DX2                !
 ! A18   A(4,5,21)             110.4208         estimate D2E/DX2                !
 ! A19   A(6,5,20)             109.1262         estimate D2E/DX2                !
 ! A20   A(6,5,21)             110.1934         estimate D2E/DX2                !
 ! A21   A(20,5,21)            107.4821         estimate D2E/DX2                !
 ! A22   A(5,6,7)              115.1814         estimate D2E/DX2                !
 ! A23   A(5,6,22)             108.5509         estimate D2E/DX2                !
 ! A24   A(5,6,23)             110.474          estimate D2E/DX2                !
 ! A25   A(7,6,22)             106.7304         estimate D2E/DX2                !
 ! A26   A(7,6,23)             108.2537         estimate D2E/DX2                !
 ! A27   A(22,6,23)            107.3179         estimate D2E/DX2                !
 ! A28   A(2,7,6)              110.1927         estimate D2E/DX2                !
 ! A29   A(2,7,8)              108.2888         estimate D2E/DX2                !
 ! A30   A(2,7,9)              108.165          estimate D2E/DX2                !
 ! A31   A(6,7,8)              109.7128         estimate D2E/DX2                !
 ! A32   A(6,7,9)              112.8785         estimate D2E/DX2                !
 ! A33   A(8,7,9)              107.4626         estimate D2E/DX2                !
 ! A34   A(7,8,24)             110.8185         estimate D2E/DX2                !
 ! A35   A(7,8,25)             109.5624         estimate D2E/DX2                !
 ! A36   A(7,8,26)             109.2038         estimate D2E/DX2                !
 ! A37   A(24,8,25)            109.082          estimate D2E/DX2                !
 ! A38   A(24,8,26)            109.0115         estimate D2E/DX2                !
 ! A39   A(25,8,26)            109.137          estimate D2E/DX2                !
 ! A40   A(7,9,12)             124.5499         estimate D2E/DX2                !
 ! A41   A(7,9,13)             112.9373         estimate D2E/DX2                !
 ! A42   A(12,9,13)            122.5089         estimate D2E/DX2                !
 ! A43   A(3,10,27)            108.9589         estimate D2E/DX2                !
 ! A44   A(3,10,28)            109.2947         estimate D2E/DX2                !
 ! A45   A(3,10,29)            111.3229         estimate D2E/DX2                !
 ! A46   A(27,10,28)           109.4087         estimate D2E/DX2                !
 ! A47   A(27,10,29)           109.7757         estimate D2E/DX2                !
 ! A48   A(28,10,29)           108.0551         estimate D2E/DX2                !
 ! A49   A(3,11,14)            126.1321         estimate D2E/DX2                !
 ! A50   A(3,11,15)            111.2387         estimate D2E/DX2                !
 ! A51   A(14,11,15)           122.5379         estimate D2E/DX2                !
 ! A52   A(9,13,16)            116.3383         estimate D2E/DX2                !
 ! A53   A(11,15,17)           116.8953         estimate D2E/DX2                !
 ! A54   A(13,16,30)           109.0037         estimate D2E/DX2                !
 ! A55   A(13,16,31)           110.262          estimate D2E/DX2                !
 ! A56   A(13,16,32)           105.14           estimate D2E/DX2                !
 ! A57   A(30,16,31)           109.8529         estimate D2E/DX2                !
 ! A58   A(30,16,32)           111.443          estimate D2E/DX2                !
 ! A59   A(31,16,32)           111.0318         estimate D2E/DX2                !
 ! A60   A(15,17,33)           109.9719         estimate D2E/DX2                !
 ! A61   A(15,17,34)           105.0875         estimate D2E/DX2                !
 ! A62   A(15,17,35)           110.1344         estimate D2E/DX2                !
 ! A63   A(33,17,34)           111.0626         estimate D2E/DX2                !
 ! A64   A(33,17,35)           109.3492         estimate D2E/DX2                !
 ! A65   A(34,17,35)           111.1717         estimate D2E/DX2                !
 ! D1    D(1,2,3,4)            149.2635         estimate D2E/DX2                !
 ! D2    D(1,2,3,10)            28.5888         estimate D2E/DX2                !
 ! D3    D(1,2,3,11)           -87.8445         estimate D2E/DX2                !
 ! D4    D(7,2,3,4)            -44.7039         estimate D2E/DX2                !
 ! D5    D(7,2,3,10)          -165.3785         estimate D2E/DX2                !
 ! D6    D(7,2,3,11)            78.1881         estimate D2E/DX2                !
 ! D7    D(1,2,7,6)           -154.7723         estimate D2E/DX2                !
 ! D8    D(1,2,7,8)            -34.7678         estimate D2E/DX2                !
 ! D9    D(1,2,7,9)             81.404          estimate D2E/DX2                !
 ! D10   D(3,2,7,6)             39.1554         estimate D2E/DX2                !
 ! D11   D(3,2,7,8)            159.1599         estimate D2E/DX2                !
 ! D12   D(3,2,7,9)            -84.6683         estimate D2E/DX2                !
 ! D13   D(2,3,4,5)             52.1741         estimate D2E/DX2                !
 ! D14   D(2,3,4,18)           -68.4528         estimate D2E/DX2                !
 ! D15   D(2,3,4,19)           175.152          estimate D2E/DX2                !
 ! D16   D(10,3,4,5)           172.3352         estimate D2E/DX2                !
 ! D17   D(10,3,4,18)           51.7084         estimate D2E/DX2                !
 ! D18   D(10,3,4,19)          -64.6869         estimate D2E/DX2                !
 ! D19   D(11,3,4,5)           -69.2567         estimate D2E/DX2                !
 ! D20   D(11,3,4,18)          170.1165         estimate D2E/DX2                !
 ! D21   D(11,3,4,19)           53.7212         estimate D2E/DX2                !
 ! D22   D(2,3,10,27)          175.7366         estimate D2E/DX2                !
 ! D23   D(2,3,10,28)           56.2289         estimate D2E/DX2                !
 ! D24   D(2,3,10,29)          -63.0567         estimate D2E/DX2                !
 ! D25   D(4,3,10,27)           55.3527         estimate D2E/DX2                !
 ! D26   D(4,3,10,28)          -64.155          estimate D2E/DX2                !
 ! D27   D(4,3,10,29)          176.5594         estimate D2E/DX2                !
 ! D28   D(11,3,10,27)         -66.1509         estimate D2E/DX2                !
 ! D29   D(11,3,10,28)         174.3414         estimate D2E/DX2                !
 ! D30   D(11,3,10,29)          55.0558         estimate D2E/DX2                !
 ! D31   D(2,3,11,14)           17.0796         estimate D2E/DX2                !
 ! D32   D(2,3,11,15)         -166.3447         estimate D2E/DX2                !
 ! D33   D(4,3,11,14)          138.6501         estimate D2E/DX2                !
 ! D34   D(4,3,11,15)          -44.7741         estimate D2E/DX2                !
 ! D35   D(10,3,11,14)        -100.9497         estimate D2E/DX2                !
 ! D36   D(10,3,11,15)          75.6261         estimate D2E/DX2                !
 ! D37   D(3,4,5,6)            -58.2011         estimate D2E/DX2                !
 ! D38   D(3,4,5,20)          -178.1643         estimate D2E/DX2                !
 ! D39   D(3,4,5,21)            63.6403         estimate D2E/DX2                !
 ! D40   D(18,4,5,6)            60.8949         estimate D2E/DX2                !
 ! D41   D(18,4,5,20)          -59.0683         estimate D2E/DX2                !
 ! D42   D(18,4,5,21)         -177.2637         estimate D2E/DX2                !
 ! D43   D(19,4,5,6)          -179.7082         estimate D2E/DX2                !
 ! D44   D(19,4,5,20)           60.3286         estimate D2E/DX2                !
 ! D45   D(19,4,5,21)          -57.8668         estimate D2E/DX2                !
 ! D46   D(4,5,6,7)             53.3941         estimate D2E/DX2                !
 ! D47   D(4,5,6,22)           -66.1646         estimate D2E/DX2                !
 ! D48   D(4,5,6,23)           176.419          estimate D2E/DX2                !
 ! D49   D(20,5,6,7)           173.621          estimate D2E/DX2                !
 ! D50   D(20,5,6,22)           54.0623         estimate D2E/DX2                !
 ! D51   D(20,5,6,23)          -63.3541         estimate D2E/DX2                !
 ! D52   D(21,5,6,7)           -68.5824         estimate D2E/DX2                !
 ! D53   D(21,5,6,22)          171.8589         estimate D2E/DX2                !
 ! D54   D(21,5,6,23)           54.4424         estimate D2E/DX2                !
 ! D55   D(5,6,7,2)            -41.7855         estimate D2E/DX2                !
 ! D56   D(5,6,7,8)           -160.9259         estimate D2E/DX2                !
 ! D57   D(5,6,7,9)             79.2607         estimate D2E/DX2                !
 ! D58   D(22,6,7,2)            78.7735         estimate D2E/DX2                !
 ! D59   D(22,6,7,8)           -40.3668         estimate D2E/DX2                !
 ! D60   D(22,6,7,9)          -160.1803         estimate D2E/DX2                !
 ! D61   D(23,6,7,2)          -165.9844         estimate D2E/DX2                !
 ! D62   D(23,6,7,8)            74.8752         estimate D2E/DX2                !
 ! D63   D(23,6,7,9)           -44.9382         estimate D2E/DX2                !
 ! D64   D(2,7,8,24)            65.3061         estimate D2E/DX2                !
 ! D65   D(2,7,8,25)           -55.1112         estimate D2E/DX2                !
 ! D66   D(2,7,8,26)          -174.5953         estimate D2E/DX2                !
 ! D67   D(6,7,8,24)          -174.3894         estimate D2E/DX2                !
 ! D68   D(6,7,8,25)            65.1932         estimate D2E/DX2                !
 ! D69   D(6,7,8,26)           -54.2909         estimate D2E/DX2                !
 ! D70   D(9,7,8,24)           -51.3204         estimate D2E/DX2                !
 ! D71   D(9,7,8,25)          -171.7377         estimate D2E/DX2                !
 ! D72   D(9,7,8,26)            68.7782         estimate D2E/DX2                !
 ! D73   D(2,7,9,12)           -85.6644         estimate D2E/DX2                !
 ! D74   D(2,7,9,13)            95.0318         estimate D2E/DX2                !
 ! D75   D(6,7,9,12)           152.1437         estimate D2E/DX2                !
 ! D76   D(6,7,9,13)           -27.1601         estimate D2E/DX2                !
 ! D77   D(8,7,9,12)            31.0432         estimate D2E/DX2                !
 ! D78   D(8,7,9,13)          -148.2606         estimate D2E/DX2                !
 ! D79   D(7,9,13,16)         -172.8764         estimate D2E/DX2                !
 ! D80   D(12,9,13,16)           7.8036         estimate D2E/DX2                !
 ! D81   D(3,11,15,17)        -176.7361         estimate D2E/DX2                !
 ! D82   D(14,11,15,17)         -0.0165         estimate D2E/DX2                !
 ! D83   D(9,13,16,30)          62.0325         estimate D2E/DX2                !
 ! D84   D(9,13,16,31)         -58.6323         estimate D2E/DX2                !
 ! D85   D(9,13,16,32)        -178.3811         estimate D2E/DX2                !
 ! D86   D(11,15,17,33)        -61.5254         estimate D2E/DX2                !
 ! D87   D(11,15,17,34)        178.8702         estimate D2E/DX2                !
 ! D88   D(11,15,17,35)         59.0524         estimate D2E/DX2                !
 --------------------------------------------------------------------------------
 Trust Radius=3.00D-01 FncErr=1.00D-07 GrdErr=1.00D-06 EigMax=2.50D+02 EigMin=1.00D-04
 Number of steps in this run=    198 maximum allowed number of steps=    210.
 GradGradGradGradGradGradGradGradGradGradGradGradGradGradGradGradGradGrad

 Leave Link  103 at Thu Jan  9 22:51:20 2025, MaxMem=  4026531840 cpu:               0.4 elap:               0.0
 (Enter /usr/local/intel/g16/l202.exe)
                          Input orientation:                          
 ---------------------------------------------------------------------
 Center     Atomic      Atomic             Coordinates (Angstroms)
 Number     Number       Type             X           Y           Z
 ---------------------------------------------------------------------
      1          8           0        0.807012   -1.562413   -1.806780
      2          7           0        0.552475   -1.194075   -0.567766
      3          6           0       -0.858758   -1.229754   -0.103985
      4          6           0       -0.899058   -1.531688    1.409443
      5          6           0        0.000720   -0.583505    2.209618
      6          6           0        1.449402   -0.687011    1.709860
      7          6           0        1.636834   -0.483903    0.186430
      8          6           0        2.990768   -1.066692   -0.251873
      9          6           0        1.616569    1.008627   -0.229314
     10          6           0       -1.622828   -2.322583   -0.883135
     11          6           0       -1.540982    0.112207   -0.438775
     12          8           0        2.199335    1.467630   -1.211486
     13          8           0        0.885149    1.791333    0.625546
     14          8           0       -1.134935    0.953268   -1.243505
     15          8           0       -2.730500    0.242976    0.225450
     16          6           0        0.680918    3.181976    0.218422
     17          6           0       -3.519259    1.441843   -0.059376
     18          1           0       -0.561830   -2.567442    1.543540
     19          1           0       -1.935418   -1.468077    1.747687
     20          1           0       -0.033119   -0.853857    3.270365
     21          1           0       -0.356270    0.446256    2.121544
     22          1           0        1.828714   -1.690024    1.943922
     23          1           0        2.086879    0.032442    2.232520
     24          1           0        3.185583   -0.846738   -1.300401
     25          1           0        2.986292   -2.150723   -0.108871
     26          1           0        3.786600   -0.627359    0.358601
     27          1           0       -2.638792   -2.397180   -0.486256
     28          1           0       -1.112024   -3.280632   -0.756238
     29          1           0       -1.658913   -2.097371   -1.949848
     30          1           0        0.121292    3.199491   -0.719254
     31          1           0        1.642774    3.682482    0.085792
     32          1           0        0.113024    3.635302    1.029488
     33          1           0       -2.955810    2.334868    0.221929
     34          1           0       -4.417960    1.339878    0.545419
     35          1           0       -3.762782    1.487747   -1.123259
 ---------------------------------------------------------------------
                    Distance matrix (angstroms):
                    1          2          3          4          5
     1  O    0.000000
     2  N    1.317428   0.000000
     3  C    2.405195   1.485915   0.000000
     4  C    3.640839   2.475941   1.543779   0.000000
     5  C    4.211867   2.896738   2.551294   1.532622   0.000000
     6  C    3.680455   2.499834   2.985332   2.513761   1.535953
     7  C    2.413436   1.499663   2.620804   3.004058   2.603859
     8  C    2.726218   2.461968   3.855815   4.255225   3.902921
     9  C    3.123144   2.469563   3.339656   3.932824   3.330802
    10  C    2.708339   2.470816   1.544394   2.530864   3.901977
    11  C    3.192000   2.470946   1.542198   2.555458   3.142427
    12  O    3.387344   3.195496   4.225443   5.046307   4.554670
    13  O    4.143661   3.232232   3.563761   3.852318   2.988537
    14  O    3.227551   2.813371   2.477976   3.642633   3.946573
    15  O    4.461320   3.670454   2.404346   2.811663   3.475566
    16  C    5.160094   4.447967   4.683792   5.112092   4.313511
    17  C    5.549378   4.877042   3.770635   4.226674   4.651948
    18  H    3.756122   2.754165   2.142875   1.097493   2.167055
    19  H    4.490441   3.409694   2.155153   1.092015   2.178182
    20  H    5.194735   3.897425   3.494169   2.161559   1.095180
    21  H    4.562862   3.278550   2.830986   2.171168   1.093438
    22  H    3.889463   2.860652   3.410026   2.784148   2.153263
    23  H    4.527424   3.420576   3.966002   3.469838   2.175310
    24  H    2.534997   2.755114   4.234951   4.949414   4.746881
    25  H    2.824582   2.655038   3.953810   4.217159   4.092090
    26  H    3.800151   3.411581   4.707039   4.886458   4.214389
    27  H    3.783409   3.411494   2.162761   2.714669   4.186189
    28  H    2.781836   2.675780   2.166951   2.791833   4.160408
    29  H    2.527337   2.759770   2.190940   3.490303   4.727296
    30  H    4.932409   4.417272   4.577911   5.287393   4.785801
    31  H    5.638196   5.039514   5.515772   5.949835   5.040399
    32  H    5.961734   5.105607   5.088997   5.278869   4.382197
    33  H    5.784746   5.038365   4.148539   4.537695   4.605310
    34  H    6.423120   5.689053   4.437640   4.623321   5.098401
    35  H    5.536578   5.110987   4.105738   4.871600   5.437104
                    6          7          8          9         10
     6  C    0.000000
     7  C    1.548297   0.000000
     8  C    2.523562   1.537820   0.000000
     9  C    2.581381   1.549484   2.489153   0.000000
    10  C    4.340198   3.892314   4.822968   4.692349   0.000000
    11  C    3.767994   3.293136   4.686309   3.289008   2.476360
    12  O    3.706635   2.465574   2.823121   1.230838   5.392815
    13  O    2.763387   2.436094   3.656748   1.370544   5.048799
    14  O    4.253431   3.434076   4.699468   2.932989   3.331532
    15  O    4.532100   4.427582   5.888631   4.437346   3.006325
    16  C    4.217110   3.788597   4.858782   2.408185   6.068018
    17  C    5.687689   5.509466   6.979273   5.156868   4.294873
    18  H    2.758394   3.319188   4.254023   4.547164   2.659779
    19  H    3.473975   4.020834   5.331666   4.760169   2.783724
    20  H    2.158908   3.526509   4.647080   4.293957   4.683577
    21  H    2.171228   2.929561   4.373189   3.120078   4.277702
    22  H    1.097587   2.140169   2.561333   3.471409   4.506165
    23  H    1.094149   2.157693   2.863096   2.689750   5.386592
    24  H    3.478722   2.177370   1.088919   2.655449   5.047083
    25  H    2.795043   2.164839   1.093432   3.445597   4.676859
    26  H    2.700362   2.161415   1.095007   2.780491   5.803241
    27  H    4.945800   4.732242   5.789394   5.456522   1.093280
    28  H    4.401069   4.033179   4.689223   5.110833   1.093106
    29  H    5.004418   4.246047   5.056180   4.830760   1.090825
    30  H    4.771726   4.084669   5.162621   2.697365   5.793282
    31  H    4.665561   4.167604   4.948309   2.692486   6.903896
    32  H    4.575063   4.472202   5.659686   3.277904   6.493666
    33  H    5.545411   5.388795   6.867087   4.782174   4.968889
    34  H    6.315864   6.333686   7.830486   6.093068   4.823603
    35  H    6.318465   5.895638   7.272889   5.474131   4.376720
                   11         12         13         14         15
    11  C    0.000000
    12  O    4.052681   0.000000
    13  O    3.136615   2.281788   0.000000
    14  O    1.232821   3.373863   2.876881   0.000000
    15  O    1.368667   5.278999   3.953531   2.282142   0.000000
    16  C    3.846067   2.699854   1.463335   3.225165   4.502837
    17  C    2.413598   5.833553   4.471026   2.706634   1.463061
    18  H    3.474022   5.612130   4.683522   4.526750   3.786679
    19  H    2.726443   5.871223   4.454049   3.930765   2.424266
    20  H    4.118817   5.519071   3.851664   4.985451   4.213124
    21  H    2.840839   4.322431   2.363972   3.490979   3.045236
    22  H    4.503347   4.479368   3.840349   5.092141   5.241762
    23  H    4.505947   3.732772   2.668374   4.828121   5.223006
    24  H    4.899224   2.517318   3.995083   4.680826   6.206105
    25  H    5.072070   3.863617   4.527027   5.282676   6.206712
    26  H    5.437453   3.061627   3.786786   5.411712   6.576306
    27  H    2.739428   6.234596   5.585508   3.749735   2.735939
    28  H    3.434552   5.806750   5.623420   4.261908   3.999874
    29  H    2.679456   5.304761   5.312902   3.174881   3.370081
    30  H    3.517548   2.749527   2.091620   2.626493   4.214993
    31  H    4.812311   2.626454   2.107552   4.114767   5.565540
    32  H    4.159775   3.751461   2.039502   3.730577   4.498887
    33  H    2.716338   5.420544   3.900167   2.715125   2.103994
    34  H    3.279149   6.847746   5.322894   3.758719   2.037914
    35  H    2.701300   5.962804   4.975314   2.684345   2.105725
                   16         17         18         19         20
    16  C    0.000000
    17  C    4.554857   0.000000
    18  H    6.029608   5.233554   0.000000
    19  H    5.550393   3.773813   1.771164   0.000000
    20  H    5.110005   5.339530   2.489545   2.512878   0.000000
    21  H    3.490243   3.968892   3.075503   2.509611   1.764797
    22  H    5.294447   6.513264   2.577764   3.775773   2.434142
    23  H    3.994106   6.218358   3.774884   4.320358   2.521317
    24  H    4.981035   7.192541   5.009184   5.991791   5.590348
    25  H    5.818896   7.431768   3.936151   5.304342   4.713591
    26  H    4.916904   7.604727   4.906816   5.947929   4.808318
    27  H    6.530239   3.961761   2.909095   2.519617   4.825306
    28  H    6.777161   5.346229   2.469885   3.198902   4.823568
    29  H    6.168282   4.422760   3.691655   3.760882   5.607152
    30  H    1.092119   4.096142   6.232528   5.665867   5.689511
    31  H    1.092366   5.629220   6.785784   6.487959   5.790379
    32  H    1.088961   4.380681   6.260488   5.545845   5.019506
    33  H    3.734086   1.092749   5.613416   4.222739   5.291791
    34  H    5.431281   1.088043   5.579707   3.936124   5.609335
    35  H    4.941355   1.092363   5.813989   4.507603   6.220726
                   21         22         23         24         25
    21  H    0.000000
    22  H    3.060947   0.000000
    23  H    2.480430   1.765454   0.000000
    24  H    5.091784   3.616332   3.802846   0.000000
    25  H    4.784535   2.401289   3.325247   1.777593   0.000000
    26  H    4.628606   2.734194   2.614567   1.778099   1.783160
    27  H    4.482818   5.134632   5.968817   6.081944   5.643114
    28  H    4.768908   4.297539   5.490183   4.968841   4.300229
    29  H    4.974249   5.243178   6.004937   5.045295   4.996996
    30  H    3.984784   5.823672   4.754650   5.108775   6.099638
    31  H    4.314351   5.687798   4.257753   4.981528   5.989091
    32  H    3.403357   5.669116   4.280653   5.912502   6.559696
    33  H    3.732693   6.485113   5.896809   7.082148   7.452418
    34  H    4.447477   7.082164   6.846067   8.124174   8.211902
    35  H    4.818483   7.125353   6.899109   7.332188   7.734174
                   26         27         28         29         30
    26  H    0.000000
    27  H    6.718014   0.000000
    28  H    5.681482   1.784488   0.000000
    29  H    6.094545   1.786659   1.767456   0.000000
    30  H    5.407498   6.244604   6.596547   5.721909   0.000000
    31  H    4.821322   7.457971   7.535442   6.960723   1.787816
    32  H    5.667056   6.801530   7.247048   6.699235   1.802248
    33  H    7.365702   4.795238   5.990843   5.103264   3.331960
    34  H    8.439178   4.265606   5.828605   5.064916   5.065804
    35  H    7.978894   4.094116   5.467967   4.238229   4.263721
                   31         32         33         34         35
    31  H    0.000000
    32  H    1.798033   0.000000
    33  H    4.793910   3.429435   0.000000
    34  H    6.513950   5.102265   1.797925   0.000000
    35  H    5.958079   4.926275   1.782792   1.798780   0.000000
 Stoichiometry    C11H18NO5(2)
 Framework group  C1[X(C11H18NO5)]
 Deg. of freedom    99
 Full point group                 C1      NOp   1
 Largest Abelian subgroup         C1      NOp   1
 Largest concise Abelian subgroup C1      NOp   1
                         Standard orientation:                         
 ---------------------------------------------------------------------
 Center     Atomic      Atomic             Coordinates (Angstroms)
 Number     Number       Type             X           Y           Z
 ---------------------------------------------------------------------
      1          8           0        0.807012   -1.562413   -1.806780
      2          7           0        0.552475   -1.194075   -0.567766
      3          6           0       -0.858758   -1.229754   -0.103985
      4          6           0       -0.899058   -1.531688    1.409443
      5          6           0        0.000720   -0.583505    2.209618
      6          6           0        1.449402   -0.687011    1.709860
      7          6           0        1.636834   -0.483902    0.186430
      8          6           0        2.990768   -1.066691   -0.251873
      9          6           0        1.616569    1.008628   -0.229314
     10          6           0       -1.622827   -2.322583   -0.883135
     11          6           0       -1.540982    0.112207   -0.438775
     12          8           0        2.199335    1.467631   -1.211486
     13          8           0        0.885148    1.791333    0.625546
     14          8           0       -1.134935    0.953268   -1.243505
     15          8           0       -2.730500    0.242975    0.225450
     16          6           0        0.680917    3.181976    0.218422
     17          6           0       -3.519259    1.441842   -0.059376
     18          1           0       -0.561829   -2.567442    1.543540
     19          1           0       -1.935418   -1.468077    1.747687
     20          1           0       -0.033119   -0.853857    3.270365
     21          1           0       -0.356270    0.446256    2.121544
     22          1           0        1.828714   -1.690023    1.943922
     23          1           0        2.086879    0.032443    2.232520
     24          1           0        3.185583   -0.846737   -1.300401
     25          1           0        2.986293   -2.150722   -0.108871
     26          1           0        3.786600   -0.627358    0.358601
     27          1           0       -2.638791   -2.397181   -0.486256
     28          1           0       -1.112023   -3.280632   -0.756238
     29          1           0       -1.658912   -2.097371   -1.949848
     30          1           0        0.121291    3.199491   -0.719254
     31          1           0        1.642773    3.682483    0.085792
     32          1           0        0.113023    3.635302    1.029488
     33          1           0       -2.955811    2.334867    0.221929
     34          1           0       -4.417960    1.339877    0.545419
     35          1           0       -3.762782    1.487746   -1.123259
 ---------------------------------------------------------------------
 Rotational constants (GHZ):           0.6125650           0.4774357           0.3833911
 Leave Link  202 at Thu Jan  9 22:51:20 2025, MaxMem=  4026531840 cpu:               0.1 elap:               0.0
 (Enter /usr/local/intel/g16/l301.exe)
 Standard basis: def2TZVP (5D, 7F)
 Ernie: Thresh=  0.10000D-02 Tol=  0.10000D-05 Strict=F.
 There are   720 symmetry adapted cartesian basis functions of A   symmetry.
 There are   635 symmetry adapted basis functions of A   symmetry.
   635 basis functions,  1011 primitive gaussians,   720 cartesian basis functions
    66 alpha electrons       65 beta electrons
       nuclear repulsion energy      1424.6492333484 Hartrees.
 IExCor= 4336 DFT=T Ex+Corr=M062X ExCW=0 ScaHFX=  0.540000
 ScaDFX=  1.000000  1.000000  1.000000  1.000000 ScalE2=  1.000000  1.000000
 IRadAn=      5 IRanWt=     -1 IRanGd=            0 ICorTp=0 IEmpDi=  4
 NAtoms=   35 NActive=   35 NUniq=   35 SFac= 1.00D+00 NAtFMM=   60 NAOKFM=F Big=F
 Integral buffers will be    131072 words long.
 Raffenetti 2 integral format.
 Two-electron integral symmetry is turned on.
 Leave Link  301 at Thu Jan  9 22:51:21 2025, MaxMem=  4026531840 cpu:               1.4 elap:               0.2
 (Enter /usr/local/intel/g16/l302.exe)
 NPDir=0 NMtPBC=     1 NCelOv=     1 NCel=       1 NClECP=     1 NCelD=      1
         NCelK=      1 NCelE2=     1 NClLst=     1 CellRange=     0.0.
 One-electron integrals computed using PRISM.
 One-electron integral symmetry used in STVInt
   1 Symmetry operations used in ECPInt.
 ECPInt:  NShTT=   33670 NPrTT=  101004 LenC2=   31703 LenP2D=   69971.
 LDataN:  DoStor=T MaxTD1= 6 Len=  172
 NBasis=   635 RedAO= T EigKep=  3.62D-05  NBF=   635
 NBsUse=   635 1.00D-06 EigRej= -1.00D+00 NBFU=   635
 Precomputing XC quadrature grid using
 IXCGrd= 4 IRadAn=           5 IRanWt=          -1 IRanGd=           0 AccXCQ= 0.00D+00.
 Generated NRdTot=       0 NPtTot=           0 NUsed=           0 NTot=          32
 NSgBfM=   712   712   712   712   712 MxSgAt=    35 MxSgA2=    35.
 Leave Link  302 at Thu Jan  9 22:51:22 2025, MaxMem=  4026531840 cpu:              27.0 elap:               1.4
 (Enter /usr/local/intel/g16/l303.exe)
 DipDrv:  MaxL=1.
 Leave Link  303 at Thu Jan  9 22:51:22 2025, MaxMem=  4026531840 cpu:               3.7 elap:               0.2
 (Enter /usr/local/intel/g16/l401.exe)
 ExpMin= 9.52D-02 ExpMax= 2.70D+04 ExpMxC= 9.22D+02 IAcc=3 IRadAn=         5 AccDes= 0.00D+00
 Harris functional with IExCor= 1009 and IRadAn=       5 diagonalized for initial guess.
 HarFok:  IExCor= 1009 AccDes= 0.00D+00 IRadAn=         5 IDoV= 1 UseB2=F ITyADJ=14
 ICtDFT=  3500011 ScaDFX=  1.000000  1.000000  1.000000  1.000000
 FoFCou: FMM=F IPFlag=           0 FMFlag=      100000 FMFlg1=           0
         NFxFlg=           0 DoJE=T BraDBF=F KetDBF=T FulRan=T
         wScrn=  0.000000 ICntrl=       500 IOpCl=  0 I1Cent=   200000004 NGrid=           0
         NMat0=    1 NMatS0=      1 NMatT0=    0 NMatD0=    1 NMtDS0=    0 NMtDT0=    0
 Petite list used in FoFCou.
 Harris En= -860.404899071077    
 JPrj=0 DoOrth=F DoCkMO=F.
 Initial guess <Sx>= 0.0000 <Sy>= 0.0000 <Sz>= 0.5000 <S**2>= 0.7500 S= 0.5000
 Leave Link  401 at Thu Jan  9 22:51:27 2025, MaxMem=  4026531840 cpu:              91.3 elap:               4.6
 (Enter /usr/local/intel/g16/l502.exe)
 Integral symmetry usage will be decided dynamically.
 UHF open shell SCF:
 Using DIIS extrapolation, IDIIS=  1040.
 NGot=  4026531840 LenX=  4025473370 LenY=  4024954250
 Requested convergence on RMS density matrix=1.00D-08 within 128 cycles.
 Requested convergence on MAX density matrix=1.00D-06.
 Requested convergence on             energy=1.00D-06.
 No special actions if energy rises.
 Fock matrices will be formed incrementally for  20 cycles.
 Integral accuracy reduced to 1.0D-05 until final iterations.

 Cycle   1  Pass 0  IDiag  1:
 FoFJK:  IHMeth= 1 ICntrl=       0 DoSepK=F KAlg= 0 I1Cent=           0 FoldK=F
 IRaf= 890000000 NMat=       1 IRICut=       1 DoRegI=T DoRafI=F ISym2E= 0 IDoP0=0 IntGTp=1.
 FoFCou: FMM=F IPFlag=           0 FMFlag=      100000 FMFlg1=           0
         NFxFlg=           0 DoJE=F BraDBF=F KetDBF=F FulRan=T
         wScrn=  0.000000 ICntrl=         0 IOpCl=  1 I1Cent=           0 NGrid=           0
         NMat0=    1 NMatS0=      1 NMatT0=    0 NMatD0=    1 NMtDS0=    0 NMtDT0=    0
 Symmetry not used in FoFCou.
 E= -860.276687679434    
 DIIS: error= 2.19D-02 at cycle   1 NSaved=   1.
 NSaved= 1 IEnMin= 1 EnMin= -860.276687679434     IErMin= 1 ErrMin= 2.19D-02
 ErrMax= 2.19D-02  0.00D+00 EMaxC= 1.00D-01 BMatC= 2.86D+00 BMatP= 2.86D+00
 IDIUse=3 WtCom= 7.81D-01 WtEn= 2.19D-01
 Coeff-Com:  0.100D+01
 Coeff-En:   0.100D+01
 Coeff:      0.100D+01
 Gap=     0.310 Goal=   None    Shift=    0.000
 Gap=     0.194 Goal=   None    Shift=    0.000
 GapD=    0.194 DampG=1.000 DampE=0.500 DampFc=0.5000 IDamp=-1.
 Damping current iteration by 5.00D-01
 RMSDP=2.58D-03 MaxDP=2.70D-01              OVMax= 2.25D-01

 Cycle   2  Pass 0  IDiag  1:
 RMSU=  1.29D-03    CP:  9.84D-01
 E= -860.495042656436     Delta-E=       -0.218354977002 Rises=F Damp=T
 DIIS: error= 5.21D-03 at cycle   2 NSaved=   2.
 NSaved= 2 IEnMin= 2 EnMin= -860.495042656436     IErMin= 2 ErrMin= 5.21D-03
 ErrMax= 5.21D-03  0.00D+00 EMaxC= 1.00D-01 BMatC= 3.48D-01 BMatP= 2.86D+00
 IDIUse=3 WtCom= 9.48D-01 WtEn= 5.21D-02
 Coeff-Com:  0.749D-01 0.925D+00
 Coeff-En:   0.134D+00 0.866D+00
 Coeff:      0.780D-01 0.922D+00
 Gap=     0.361 Goal=   None    Shift=    0.000
 Gap=     0.330 Goal=   None    Shift=    0.000
 RMSDP=8.19D-04 MaxDP=5.92D-02 DE=-2.18D-01 OVMax= 1.73D-01

 Cycle   3  Pass 0  IDiag  1:
 RMSU=  8.14D-04    CP:  9.70D-01  9.80D-01
 E= -860.751952415800     Delta-E=       -0.256909759363 Rises=F Damp=F
 DIIS: error= 6.33D-03 at cycle   3 NSaved=   3.
 NSaved= 3 IEnMin= 3 EnMin= -860.751952415800     IErMin= 2 ErrMin= 5.21D-03
 ErrMax= 6.33D-03  0.00D+00 EMaxC= 1.00D-01 BMatC= 2.62D-01 BMatP= 3.48D-01
 IDIUse=3 WtCom= 9.37D-01 WtEn= 6.33D-02
 Coeff-Com: -0.571D-01 0.476D+00 0.581D+00
 Coeff-En:   0.000D+00 0.000D+00 0.100D+01
 Coeff:     -0.535D-01 0.446D+00 0.608D+00
 Gap=     0.299 Goal=   None    Shift=    0.000
 Gap=     0.294 Goal=   None    Shift=    0.000
 RMSDP=4.77D-04 MaxDP=2.65D-02 DE=-2.57D-01 OVMax= 6.96D-02

 Cycle   4  Pass 0  IDiag  1:
 RMSU=  3.62D-04    CP:  9.75D-01  1.14D+00  7.21D-01
 E= -860.795282873841     Delta-E=       -0.043330458041 Rises=F Damp=F
 DIIS: error= 2.22D-03 at cycle   4 NSaved=   4.
 NSaved= 4 IEnMin= 4 EnMin= -860.795282873841     IErMin= 4 ErrMin= 2.22D-03
 ErrMax= 2.22D-03  0.00D+00 EMaxC= 1.00D-01 BMatC= 4.17D-02 BMatP= 2.62D-01
 IDIUse=3 WtCom= 9.78D-01 WtEn= 2.22D-02
 Coeff-Com: -0.234D-01 0.689D-01 0.315D+00 0.640D+00
 Coeff-En:   0.000D+00 0.000D+00 0.130D+00 0.870D+00
 Coeff:     -0.229D-01 0.674D-01 0.311D+00 0.645D+00
 Gap=     0.303 Goal=   None    Shift=    0.000
 Gap=     0.299 Goal=   None    Shift=    0.000
 RMSDP=1.85D-04 MaxDP=1.09D-02 DE=-4.33D-02 OVMax= 1.48D-02

 Cycle   5  Pass 0  IDiag  1:
 RMSU=  1.10D-04    CP:  9.72D-01  1.09D+00  8.32D-01  7.30D-01
 E= -860.803390303527     Delta-E=       -0.008107429686 Rises=F Damp=F
 DIIS: error= 3.93D-04 at cycle   5 NSaved=   5.
 NSaved= 5 IEnMin= 5 EnMin= -860.803390303527     IErMin= 5 ErrMin= 3.93D-04
 ErrMax= 3.93D-04  0.00D+00 EMaxC= 1.00D-01 BMatC= 1.54D-03 BMatP= 4.17D-02
 IDIUse=3 WtCom= 9.96D-01 WtEn= 3.93D-03
 Coeff-Com: -0.555D-02 0.561D-02 0.111D+00 0.276D+00 0.613D+00
 Coeff-En:   0.000D+00 0.000D+00 0.000D+00 0.000D+00 0.100D+01
 Coeff:     -0.552D-02 0.559D-02 0.111D+00 0.275D+00 0.614D+00
 Gap=     0.301 Goal=   None    Shift=    0.000
 Gap=     0.299 Goal=   None    Shift=    0.000
 RMSDP=3.23D-05 MaxDP=2.68D-03 DE=-8.11D-03 OVMax= 6.73D-03

 Cycle   6  Pass 0  IDiag  1:
 RMSU=  3.05D-05    CP:  9.72D-01  1.09D+00  8.36D-01  7.56D-01  9.79D-01
 E= -860.803739630986     Delta-E=       -0.000349327460 Rises=F Damp=F
 DIIS: error= 2.41D-04 at cycle   6 NSaved=   6.
 NSaved= 6 IEnMin= 6 EnMin= -860.803739630986     IErMin= 6 ErrMin= 2.41D-04
 ErrMax= 2.41D-04  0.00D+00 EMaxC= 1.00D-01 BMatC= 2.66D-04 BMatP= 1.54D-03
 IDIUse=3 WtCom= 9.98D-01 WtEn= 2.41D-03
 Coeff-Com:  0.289D-02-0.115D-01-0.686D-02-0.105D-01 0.233D+00 0.793D+00
 Coeff-En:   0.000D+00 0.000D+00 0.000D+00 0.000D+00 0.000D+00 0.100D+01
 Coeff:      0.289D-02-0.114D-01-0.684D-02-0.105D-01 0.233D+00 0.793D+00
 Gap=     0.303 Goal=   None    Shift=    0.000
 Gap=     0.301 Goal=   None    Shift=    0.000
 RMSDP=2.72D-05 MaxDP=2.65D-03 DE=-3.49D-04 OVMax= 4.24D-03

 Cycle   7  Pass 0  IDiag  1:
 RMSU=  1.51D-05    CP:  9.72D-01  1.09D+00  8.41D-01  7.66D-01  1.16D+00
                    CP:  1.25D+00
 E= -860.803831198456     Delta-E=       -0.000091567470 Rises=F Damp=F
 DIIS: error= 8.55D-05 at cycle   7 NSaved=   7.
 NSaved= 7 IEnMin= 7 EnMin= -860.803831198456     IErMin= 7 ErrMin= 8.55D-05
 ErrMax= 8.55D-05  0.00D+00 EMaxC= 1.00D-01 BMatC= 5.29D-05 BMatP= 2.66D-04
 IDIUse=1 WtCom= 1.00D+00 WtEn= 0.00D+00
 Coeff-Com:  0.281D-02-0.620D-02-0.228D-01-0.657D-01-0.401D-01 0.238D+00
 Coeff-Com:  0.894D+00
 Coeff:      0.281D-02-0.620D-02-0.228D-01-0.657D-01-0.401D-01 0.238D+00
 Coeff:      0.894D+00
 Gap=     0.304 Goal=   None    Shift=    0.000
 Gap=     0.301 Goal=   None    Shift=    0.000
 RMSDP=1.96D-05 MaxDP=1.79D-03 DE=-9.16D-05 OVMax= 3.23D-03

 Cycle   8  Pass 0  IDiag  1:
 RMSU=  8.87D-06    CP:  9.72D-01  1.09D+00  8.46D-01  7.66D-01  1.28D+00
                    CP:  1.48D+00  1.32D+00
 E= -860.803858784427     Delta-E=       -0.000027585971 Rises=F Damp=F
 DIIS: error= 7.17D-05 at cycle   8 NSaved=   8.
 NSaved= 8 IEnMin= 8 EnMin= -860.803858784427     IErMin= 8 ErrMin= 7.17D-05
 ErrMax= 7.17D-05  0.00D+00 EMaxC= 1.00D-01 BMatC= 2.28D-05 BMatP= 5.29D-05
 IDIUse=1 WtCom= 1.00D+00 WtEn= 0.00D+00
 Coeff-Com:  0.107D-02-0.119D-02-0.958D-02-0.341D-01-0.713D-01-0.647D-01
 Coeff-Com:  0.509D+00 0.671D+00
 Coeff:      0.107D-02-0.119D-02-0.958D-02-0.341D-01-0.713D-01-0.647D-01
 Coeff:      0.509D+00 0.671D+00
 Gap=     0.304 Goal=   None    Shift=    0.000
 Gap=     0.302 Goal=   None    Shift=    0.000
 RMSDP=8.46D-06 MaxDP=7.53D-04 DE=-2.76D-05 OVMax= 1.42D-03

 Initial convergence to 1.0D-05 achieved.  Increase integral accuracy.
 Cycle   9  Pass 1  IDiag  1:
 E= -860.803980027201     Delta-E=       -0.000121242774 Rises=F Damp=F
 DIIS: error= 9.06D-05 at cycle   1 NSaved=   1.
 NSaved= 1 IEnMin= 1 EnMin= -860.803980027201     IErMin= 1 ErrMin= 9.06D-05
 ErrMax= 9.06D-05  0.00D+00 EMaxC= 1.00D-01 BMatC= 3.90D-05 BMatP= 3.90D-05
 IDIUse=1 WtCom= 1.00D+00 WtEn= 0.00D+00
 Coeff-Com:  0.100D+01
 Coeff:      0.100D+01
 Gap=     0.304 Goal=   None    Shift=    0.000
 Gap=     0.302 Goal=   None    Shift=    0.000
 RMSDP=8.46D-06 MaxDP=7.53D-04 DE=-1.21D-04 OVMax= 4.80D-04

 Cycle  10  Pass 1  IDiag  1:
 RMSU=  6.65D-05    CP:  1.00D+00
 E= -860.803984536854     Delta-E=       -0.000004509654 Rises=F Damp=F
 DIIS: error= 2.30D-05 at cycle   2 NSaved=   2.
 NSaved= 2 IEnMin= 2 EnMin= -860.803984536854     IErMin= 2 ErrMin= 2.30D-05
 ErrMax= 2.30D-05  0.00D+00 EMaxC= 1.00D-01 BMatC= 5.05D-06 BMatP= 3.90D-05
 IDIUse=1 WtCom= 1.00D+00 WtEn= 0.00D+00
 Coeff-Com:  0.143D+00 0.857D+00
 Coeff:      0.143D+00 0.857D+00
 Gap=     0.304 Goal=   None    Shift=    0.000
 Gap=     0.302 Goal=   None    Shift=    0.000
 RMSDP=3.84D-06 MaxDP=3.46D-04 DE=-4.51D-06 OVMax= 5.61D-04

 Cycle  11  Pass 1  IDiag  1:
 RMSU=  3.36D-06    CP:  1.00D+00  1.03D+00
 E= -860.803984383570     Delta-E=        0.000000153284 Rises=F Damp=F
 DIIS: error= 2.89D-05 at cycle   3 NSaved=   3.
 NSaved= 3 IEnMin= 2 EnMin= -860.803984536854     IErMin= 2 ErrMin= 2.30D-05
 ErrMax= 2.89D-05  0.00D+00 EMaxC= 1.00D-01 BMatC= 7.87D-06 BMatP= 5.05D-06
 IDIUse=1 WtCom= 1.00D+00 WtEn= 0.00D+00
 Coeff-Com: -0.156D-01 0.563D+00 0.453D+00
 Coeff:     -0.156D-01 0.563D+00 0.453D+00
 Gap=     0.304 Goal=   None    Shift=    0.000
 Gap=     0.302 Goal=   None    Shift=    0.000
 RMSDP=1.92D-06 MaxDP=1.47D-04 DE= 1.53D-07 OVMax= 3.44D-04

 Cycle  12  Pass 1  IDiag  1:
 RMSU=  1.36D-06    CP:  1.00D+00  1.04D+00  6.38D-01
 E= -860.803985803350     Delta-E=       -0.000001419779 Rises=F Damp=F
 DIIS: error= 7.11D-06 at cycle   4 NSaved=   4.
 NSaved= 4 IEnMin= 4 EnMin= -860.803985803350     IErMin= 4 ErrMin= 7.11D-06
 ErrMax= 7.11D-06  0.00D+00 EMaxC= 1.00D-01 BMatC= 1.30D-07 BMatP= 5.05D-06
 IDIUse=1 WtCom= 1.00D+00 WtEn= 0.00D+00
 Coeff-Com: -0.798D-02 0.302D-01 0.453D-01 0.933D+00
 Coeff:     -0.798D-02 0.302D-01 0.453D-01 0.933D+00
 Gap=     0.304 Goal=   None    Shift=    0.000
 Gap=     0.302 Goal=   None    Shift=    0.000
 RMSDP=7.47D-07 MaxDP=5.79D-05 DE=-1.42D-06 OVMax= 1.34D-04

 Cycle  13  Pass 1  IDiag  1:
 RMSU=  5.13D-07    CP:  1.00D+00  1.04D+00  7.17D-01  1.34D+00
 E= -860.803985892561     Delta-E=       -0.000000089211 Rises=F Damp=F
 DIIS: error= 4.46D-06 at cycle   5 NSaved=   5.
 NSaved= 5 IEnMin= 5 EnMin= -860.803985892561     IErMin= 5 ErrMin= 4.46D-06
 ErrMax= 4.46D-06  0.00D+00 EMaxC= 1.00D-01 BMatC= 8.10D-08 BMatP= 1.30D-07
 IDIUse=1 WtCom= 1.00D+00 WtEn= 0.00D+00
 Coeff-Com:  0.532D-02-0.361D+00-0.285D+00 0.568D+00 0.107D+01
 Coeff:      0.532D-02-0.361D+00-0.285D+00 0.568D+00 0.107D+01
 Gap=     0.304 Goal=   None    Shift=    0.000
 Gap=     0.302 Goal=   None    Shift=    0.000
 RMSDP=9.60D-07 MaxDP=7.51D-05 DE=-8.92D-08 OVMax= 1.76D-04

 Cycle  14  Pass 1  IDiag  1:
 RMSU=  4.08D-07    CP:  1.00D+00  1.04D+00  8.06D-01  1.89D+00  1.58D+00
 E= -860.803985951353     Delta-E=       -0.000000058792 Rises=F Damp=F
 DIIS: error= 1.39D-06 at cycle   6 NSaved=   6.
 NSaved= 6 IEnMin= 6 EnMin= -860.803985951353     IErMin= 6 ErrMin= 1.39D-06
 ErrMax= 1.39D-06  0.00D+00 EMaxC= 1.00D-01 BMatC= 8.54D-09 BMatP= 8.10D-08
 IDIUse=1 WtCom= 1.00D+00 WtEn= 0.00D+00
 Coeff-Com:  0.317D-02-0.170D+00-0.137D+00 0.192D+00 0.521D+00 0.591D+00
 Coeff:      0.317D-02-0.170D+00-0.137D+00 0.192D+00 0.521D+00 0.591D+00
 Gap=     0.304 Goal=   None    Shift=    0.000
 Gap=     0.302 Goal=   None    Shift=    0.000
 RMSDP=1.16D-07 MaxDP=1.07D-05 DE=-5.88D-08 OVMax= 2.43D-05

 Cycle  15  Pass 1  IDiag  1:
 RMSU=  8.17D-08    CP:  1.00D+00  1.04D+00  8.13D-01  1.93D+00  1.65D+00
                    CP:  1.10D+00
 E= -860.803985953620     Delta-E=       -0.000000002266 Rises=F Damp=F
 DIIS: error= 4.80D-07 at cycle   7 NSaved=   7.
 NSaved= 7 IEnMin= 7 EnMin= -860.803985953620     IErMin= 7 ErrMin= 4.80D-07
 ErrMax= 4.80D-07  0.00D+00 EMaxC= 1.00D-01 BMatC= 1.14D-09 BMatP= 8.54D-09
 IDIUse=1 WtCom= 1.00D+00 WtEn= 0.00D+00
 Coeff-Com:  0.734D-03-0.291D-01-0.254D-01 0.178D-02 0.875D-01 0.271D+00
 Coeff-Com:  0.693D+00
 Coeff:      0.734D-03-0.291D-01-0.254D-01 0.178D-02 0.875D-01 0.271D+00
 Coeff:      0.693D+00
 Gap=     0.304 Goal=   None    Shift=    0.000
 Gap=     0.302 Goal=   None    Shift=    0.000
 RMSDP=6.70D-08 MaxDP=5.68D-06 DE=-2.27D-09 OVMax= 8.71D-06

 Cycle  16  Pass 1  IDiag  1:
 RMSU=  4.14D-08    CP:  1.00D+00  1.04D+00  8.14D-01  1.95D+00  1.70D+00
                    CP:  1.19D+00  1.02D+00
 E= -860.803985953886     Delta-E=       -0.000000000266 Rises=F Damp=F
 DIIS: error= 1.66D-07 at cycle   8 NSaved=   8.
 NSaved= 8 IEnMin= 8 EnMin= -860.803985953886     IErMin= 8 ErrMin= 1.66D-07
 ErrMax= 1.66D-07  0.00D+00 EMaxC= 1.00D-01 BMatC= 2.90D-10 BMatP= 1.14D-09
 IDIUse=1 WtCom= 1.00D+00 WtEn= 0.00D+00
 Coeff-Com: -0.237D-03 0.184D-01 0.135D-01-0.340D-01-0.534D-01 0.373D-01
 Coeff-Com:  0.392D+00 0.626D+00
 Coeff:     -0.237D-03 0.184D-01 0.135D-01-0.340D-01-0.534D-01 0.373D-01
 Coeff:      0.392D+00 0.626D+00
 Gap=     0.304 Goal=   None    Shift=    0.000
 Gap=     0.302 Goal=   None    Shift=    0.000
 RMSDP=2.21D-08 MaxDP=1.27D-06 DE=-2.66D-10 OVMax= 2.71D-06

 Cycle  17  Pass 1  IDiag  1:
 RMSU=  1.53D-08    CP:  1.00D+00  1.04D+00  8.12D-01  1.94D+00  1.71D+00
                    CP:  1.20D+00  1.09D+00  1.06D+00
 E= -860.803985953963     Delta-E=       -0.000000000076 Rises=F Damp=F
 DIIS: error= 6.24D-08 at cycle   9 NSaved=   9.
 NSaved= 9 IEnMin= 9 EnMin= -860.803985953963     IErMin= 9 ErrMin= 6.24D-08
 ErrMax= 6.24D-08  0.00D+00 EMaxC= 1.00D-01 BMatC= 2.54D-11 BMatP= 2.90D-10
 IDIUse=1 WtCom= 1.00D+00 WtEn= 0.00D+00
 Coeff-Com: -0.197D-03 0.116D-01 0.893D-02-0.149D-01-0.350D-01-0.217D-01
 Coeff-Com:  0.648D-01 0.254D+00 0.732D+00
 Coeff:     -0.197D-03 0.116D-01 0.893D-02-0.149D-01-0.350D-01-0.217D-01
 Coeff:      0.648D-01 0.254D+00 0.732D+00
 Gap=     0.304 Goal=   None    Shift=    0.000
 Gap=     0.302 Goal=   None    Shift=    0.000
 RMSDP=9.63D-09 MaxDP=6.57D-07 DE=-7.64D-11 OVMax= 2.48D-06

 SCF Done:  E(UM062X) =  -860.803985954     A.U. after   17 cycles
            NFock= 17  Conv=0.96D-08     -V/T= 2.0058
 <Sx>= 0.0000 <Sy>= 0.0000 <Sz>= 0.5000 <S**2>= 0.7560 S= 0.5030
 <L.S>=  0.00000000000    
 KE= 8.558676664665D+02 PE=-4.861356968461D+03 EE= 1.720036082692D+03
 Annihilation of the first spin contaminant:
 S**2 before annihilation     0.7560,   after     0.7500
 Leave Link  502 at Thu Jan  9 23:02:46 2025, MaxMem=  4026531840 cpu:           13575.8 elap:             679.0
 (Enter /usr/local/intel/g16/l601.exe)
 Copying SCF densities to generalized density rwf, IOpCl= 1 IROHF=0.

 **********************************************************************

            Population analysis using the SCF Density.

 **********************************************************************

 Orbital symmetries:
 Alpha Orbitals:
       Occupied  (A) (A) (A) (A) (A) (A) (A) (A) (A) (A) (A) (A)
                 (A) (A) (A) (A) (A) (A) (A) (A) (A) (A) (A) (A)
                 (A) (A) (A) (A) (A) (A) (A) (A) (A) (A) (A) (A)
                 (A) (A) (A) (A) (A) (A) (A) (A) (A) (A) (A) (A)
                 (A) (A) (A) (A) (A) (A) (A) (A) (A) (A) (A) (A)
                 (A) (A) (A) (A) (A) (A)
       Virtual   (A) (A) (A) (A) (A) (A) (A) (A) (A) (A) (A) (A)
                 (A) (A) (A) (A) (A) (A) (A) (A) (A) (A) (A) (A)
                 (A) (A) (A) (A) (A) (A) (A) (A) (A) (A) (A) (A)
                 (A) (A) (A) (A) (A) (A) (A) (A) (A) (A) (A) (A)
                 (A) (A) (A) (A) (A) (A) (A) (A) (A) (A) (A) (A)
                 (A) (A) (A) (A) (A) (A) (A) (A) (A) (A) (A) (A)
                 (A) (A) (A) (A) (A) (A) (A) (A) (A) (A) (A) (A)
                 (A) (A) (A) (A) (A) (A) (A) (A) (A) (A) (A) (A)
                 (A) (A) (A) (A) (A) (A) (A) (A) (A) (A) (A) (A)
                 (A) (A) (A) (A) (A) (A) (A) (A) (A) (A) (A) (A)
                 (A) (A) (A) (A) (A) (A) (A) (A) (A) (A) (A) (A)
                 (A) (A) (A) (A) (A) (A) (A) (A) (A) (A) (A) (A)
                 (A) (A) (A) (A) (A) (A) (A) (A) (A) (A) (A) (A)
                 (A) (A) (A) (A) (A) (A) (A) (A) (A) (A) (A) (A)
                 (A) (A) (A) (A) (A) (A) (A) (A) (A) (A) (A) (A)
                 (A) (A) (A) (A) (A) (A) (A) (A) (A) (A) (A) (A)
                 (A) (A) (A) (A) (A) (A) (A) (A) (A) (A) (A) (A)
                 (A) (A) (A) (A) (A) (A) (A) (A) (A) (A) (A) (A)
                 (A) (A) (A) (A) (A) (A) (A) (A) (A) (A) (A) (A)
                 (A) (A) (A) (A) (A) (A) (A) (A) (A) (A) (A) (A)
                 (A) (A) (A) (A) (A) (A) (A) (A) (A) (A) (A) (A)
                 (A) (A) (A) (A) (A) (A) (A) (A) (A) (A) (A) (A)
                 (A) (A) (A) (A) (A) (A) (A) (A) (A) (A) (A) (A)
                 (A) (A) (A) (A) (A) (A) (A) (A) (A) (A) (A) (A)
                 (A) (A) (A) (A) (A) (A) (A) (A) (A) (A) (A) (A)
                 (A) (A) (A) (A) (A) (A) (A) (A) (A) (A) (A) (A)
                 (A) (A) (A) (A) (A) (A) (A) (A) (A) (A) (A) (A)
                 (A) (A) (A) (A) (A) (A) (A) (A) (A) (A) (A) (A)
                 (A) (A) (A) (A) (A) (A) (A) (A) (A) (A) (A) (A)
                 (A) (A) (A) (A) (A) (A) (A) (A) (A) (A) (A) (A)
                 (A) (A) (A) (A) (A) (A) (A) (A) (A) (A) (A) (A)
                 (A) (A) (A) (A) (A) (A) (A) (A) (A) (A) (A) (A)
                 (A) (A) (A) (A) (A) (A) (A) (A) (A) (A) (A) (A)
                 (A) (A) (A) (A) (A) (A) (A) (A) (A) (A) (A) (A)
                 (A) (A) (A) (A) (A) (A) (A) (A) (A) (A) (A) (A)
                 (A) (A) (A) (A) (A) (A) (A) (A) (A) (A) (A) (A)
                 (A) (A) (A) (A) (A) (A) (A) (A) (A) (A) (A) (A)
                 (A) (A) (A) (A) (A) (A) (A) (A) (A) (A) (A) (A)
                 (A) (A) (A) (A) (A) (A) (A) (A) (A) (A) (A) (A)
                 (A) (A) (A) (A) (A) (A) (A) (A) (A) (A) (A) (A)
                 (A) (A) (A) (A) (A) (A) (A) (A) (A) (A) (A) (A)
                 (A) (A) (A) (A) (A) (A) (A) (A) (A) (A) (A) (A)
                 (A) (A) (A) (A) (A) (A) (A) (A) (A) (A) (A) (A)
                 (A) (A) (A) (A) (A) (A) (A) (A) (A) (A) (A) (A)
                 (A) (A) (A) (A) (A) (A) (A) (A) (A) (A) (A) (A)
                 (A) (A) (A) (A) (A) (A) (A) (A) (A) (A) (A) (A)
                 (A) (A) (A) (A) (A) (A) (A) (A) (A) (A) (A) (A)
                 (A) (A) (A) (A) (A)
 Beta  Orbitals:
       Occupied  (A) (A) (A) (A) (A) (A) (A) (A) (A) (A) (A) (A)
                 (A) (A) (A) (A) (A) (A) (A) (A) (A) (A) (A) (A)
                 (A) (A) (A) (A) (A) (A) (A) (A) (A) (A) (A) (A)
                 (A) (A) (A) (A) (A) (A) (A) (A) (A) (A) (A) (A)
                 (A) (A) (A) (A) (A) (A) (A) (A) (A) (A) (A) (A)
                 (A) (A) (A) (A) (A)
       Virtual   (A) (A) (A) (A) (A) (A) (A) (A) (A) (A) (A) (A)
                 (A) (A) (A) (A) (A) (A) (A) (A) (A) (A) (A) (A)
                 (A) (A) (A) (A) (A) (A) (A) (A) (A) (A) (A) (A)
                 (A) (A) (A) (A) (A) (A) (A) (A) (A) (A) (A) (A)
                 (A) (A) (A) (A) (A) (A) (A) (A) (A) (A) (A) (A)
                 (A) (A) (A) (A) (A) (A) (A) (A) (A) (A) (A) (A)
                 (A) (A) (A) (A) (A) (A) (A) (A) (A) (A) (A) (A)
                 (A) (A) (A) (A) (A) (A) (A) (A) (A) (A) (A) (A)
                 (A) (A) (A) (A) (A) (A) (A) (A) (A) (A) (A) (A)
                 (A) (A) (A) (A) (A) (A) (A) (A) (A) (A) (A) (A)
                 (A) (A) (A) (A) (A) (A) (A) (A) (A) (A) (A) (A)
                 (A) (A) (A) (A) (A) (A) (A) (A) (A) (A) (A) (A)
                 (A) (A) (A) (A) (A) (A) (A) (A) (A) (A) (A) (A)
                 (A) (A) (A) (A) (A) (A) (A) (A) (A) (A) (A) (A)
                 (A) (A) (A) (A) (A) (A) (A) (A) (A) (A) (A) (A)
                 (A) (A) (A) (A) (A) (A) (A) (A) (A) (A) (A) (A)
                 (A) (A) (A) (A) (A) (A) (A) (A) (A) (A) (A) (A)
                 (A) (A) (A) (A) (A) (A) (A) (A) (A) (A) (A) (A)
                 (A) (A) (A) (A) (A) (A) (A) (A) (A) (A) (A) (A)
                 (A) (A) (A) (A) (A) (A) (A) (A) (A) (A) (A) (A)
                 (A) (A) (A) (A) (A) (A) (A) (A) (A) (A) (A) (A)
                 (A) (A) (A) (A) (A) (A) (A) (A) (A) (A) (A) (A)
                 (A) (A) (A) (A) (A) (A) (A) (A) (A) (A) (A) (A)
                 (A) (A) (A) (A) (A) (A) (A) (A) (A) (A) (A) (A)
                 (A) (A) (A) (A) (A) (A) (A) (A) (A) (A) (A) (A)
                 (A) (A) (A) (A) (A) (A) (A) (A) (A) (A) (A) (A)
                 (A) (A) (A) (A) (A) (A) (A) (A) (A) (A) (A) (A)
                 (A) (A) (A) (A) (A) (A) (A) (A) (A) (A) (A) (A)
                 (A) (A) (A) (A) (A) (A) (A) (A) (A) (A) (A) (A)
                 (A) (A) (A) (A) (A) (A) (A) (A) (A) (A) (A) (A)
                 (A) (A) (A) (A) (A) (A) (A) (A) (A) (A) (A) (A)
                 (A) (A) (A) (A) (A) (A) (A) (A) (A) (A) (A) (A)
                 (A) (A) (A) (A) (A) (A) (A) (A) (A) (A) (A) (A)
                 (A) (A) (A) (A) (A) (A) (A) (A) (A) (A) (A) (A)
                 (A) (A) (A) (A) (A) (A) (A) (A) (A) (A) (A) (A)
                 (A) (A) (A) (A) (A) (A) (A) (A) (A) (A) (A) (A)
                 (A) (A) (A) (A) (A) (A) (A) (A) (A) (A) (A) (A)
                 (A) (A) (A) (A) (A) (A) (A) (A) (A) (A) (A) (A)
                 (A) (A) (A) (A) (A) (A) (A) (A) (A) (A) (A) (A)
                 (A) (A) (A) (A) (A) (A) (A) (A) (A) (A) (A) (A)
                 (A) (A) (A) (A) (A) (A) (A) (A) (A) (A) (A) (A)
                 (A) (A) (A) (A) (A) (A) (A) (A) (A) (A) (A) (A)
                 (A) (A) (A) (A) (A) (A) (A) (A) (A) (A) (A) (A)
                 (A) (A) (A) (A) (A) (A) (A) (A) (A) (A) (A) (A)
                 (A) (A) (A) (A) (A) (A) (A) (A) (A) (A) (A) (A)
                 (A) (A) (A) (A) (A) (A) (A) (A) (A) (A) (A) (A)
                 (A) (A) (A) (A) (A) (A) (A) (A) (A) (A) (A) (A)
                 (A) (A) (A) (A) (A) (A)
 The electronic state is 2-A.
 Alpha  occ. eigenvalues --  -19.68544 -19.67203 -19.63955 -19.62970 -19.61625
 Alpha  occ. eigenvalues --  -14.84939 -10.68898 -10.67635 -10.61604 -10.61074
 Alpha  occ. eigenvalues --  -10.60602 -10.59100 -10.55401 -10.55325 -10.54573
 Alpha  occ. eigenvalues --  -10.54235 -10.52855  -1.23168  -1.21785  -1.20478
 Alpha  occ. eigenvalues --   -1.13857  -1.12575  -0.98904  -0.92864  -0.88066
 Alpha  occ. eigenvalues --   -0.83950  -0.82084  -0.81475  -0.78316  -0.72780
 Alpha  occ. eigenvalues --   -0.71496  -0.69372  -0.66152  -0.63156  -0.60923
 Alpha  occ. eigenvalues --   -0.58943  -0.57569  -0.56962  -0.56335  -0.55475
 Alpha  occ. eigenvalues --   -0.54273  -0.53637  -0.52929  -0.52291  -0.50874
 Alpha  occ. eigenvalues --   -0.50159  -0.48664  -0.48115  -0.47327  -0.46508
 Alpha  occ. eigenvalues --   -0.45930  -0.45523  -0.44839  -0.44308  -0.43770
 Alpha  occ. eigenvalues --   -0.43676  -0.42788  -0.40397  -0.40089  -0.38843
 Alpha  occ. eigenvalues --   -0.38612  -0.37173  -0.36427  -0.35793  -0.34580
 Alpha  occ. eigenvalues --   -0.27760
 Alpha virt. eigenvalues --    0.02612   0.03781   0.05108   0.06445   0.07981
 Alpha virt. eigenvalues --    0.08769   0.09200   0.09966   0.10858   0.11538
 Alpha virt. eigenvalues --    0.12473   0.12569   0.13335   0.13806   0.14548
 Alpha virt. eigenvalues --    0.14860   0.15097   0.15605   0.15941   0.16706
 Alpha virt. eigenvalues --    0.17120   0.17267   0.18032   0.18689   0.19161
 Alpha virt. eigenvalues --    0.19924   0.20830   0.21442   0.22363   0.22710
 Alpha virt. eigenvalues --    0.23986   0.24322   0.24646   0.24906   0.25809
 Alpha virt. eigenvalues --    0.26409   0.27033   0.27869   0.28123   0.28436
 Alpha virt. eigenvalues --    0.29715   0.30028   0.31106   0.32239   0.33219
 Alpha virt. eigenvalues --    0.33368   0.33559   0.34203   0.34769   0.35776
 Alpha virt. eigenvalues --    0.36843   0.37357   0.37931   0.39240   0.39823
 Alpha virt. eigenvalues --    0.40175   0.40699   0.41326   0.41669   0.42463
 Alpha virt. eigenvalues --    0.43386   0.43416   0.44134   0.44584   0.44827
 Alpha virt. eigenvalues --    0.45405   0.45926   0.46165   0.46359   0.47151
 Alpha virt. eigenvalues --    0.47483   0.48112   0.48523   0.49095   0.49275
 Alpha virt. eigenvalues --    0.49873   0.50258   0.50454   0.50915   0.51350
 Alpha virt. eigenvalues --    0.51708   0.52363   0.52630   0.53015   0.54031
 Alpha virt. eigenvalues --    0.55167   0.55610   0.56225   0.57319   0.57849
 Alpha virt. eigenvalues --    0.58875   0.59126   0.60319   0.60966   0.61763
 Alpha virt. eigenvalues --    0.62518   0.63203   0.63970   0.64991   0.67356
 Alpha virt. eigenvalues --    0.68528   0.69032   0.69636   0.69798   0.71316
 Alpha virt. eigenvalues --    0.72337   0.73110   0.73881   0.75055   0.76081
 Alpha virt. eigenvalues --    0.77164   0.78385   0.79780   0.80396   0.81722
 Alpha virt. eigenvalues --    0.82731   0.83659   0.84894   0.85432   0.86846
 Alpha virt. eigenvalues --    0.87559   0.88462   0.89395   0.89584   0.90747
 Alpha virt. eigenvalues --    0.90904   0.92184   0.93262   0.93845   0.94585
 Alpha virt. eigenvalues --    0.95329   0.96011   0.97163   0.97690   0.99089
 Alpha virt. eigenvalues --    1.00086   1.00519   1.02372   1.03035   1.04704
 Alpha virt. eigenvalues --    1.05678   1.06705   1.07150   1.07622   1.08350
 Alpha virt. eigenvalues --    1.09174   1.09375   1.09844   1.11435   1.12612
 Alpha virt. eigenvalues --    1.14716   1.14808   1.15629   1.16915   1.18028
 Alpha virt. eigenvalues --    1.19270   1.21493   1.21984   1.22410   1.24077
 Alpha virt. eigenvalues --    1.26194   1.27645   1.27839   1.29342   1.30383
 Alpha virt. eigenvalues --    1.30919   1.31491   1.33497   1.34260   1.35267
 Alpha virt. eigenvalues --    1.38508   1.39002   1.39740   1.40537   1.43382
 Alpha virt. eigenvalues --    1.44507   1.45579   1.46942   1.49276   1.49995
 Alpha virt. eigenvalues --    1.50580   1.51169   1.53386   1.54038   1.54431
 Alpha virt. eigenvalues --    1.55853   1.56791   1.57276   1.57462   1.58281
 Alpha virt. eigenvalues --    1.59654   1.60141   1.60829   1.61258   1.61820
 Alpha virt. eigenvalues --    1.62789   1.63527   1.63651   1.63809   1.64614
 Alpha virt. eigenvalues --    1.65721   1.66093   1.66912   1.67576   1.68943
 Alpha virt. eigenvalues --    1.69688   1.69705   1.71899   1.73195   1.73825
 Alpha virt. eigenvalues --    1.74548   1.74937   1.76257   1.76843   1.77963
 Alpha virt. eigenvalues --    1.79528   1.81484   1.82249   1.83477   1.85203
 Alpha virt. eigenvalues --    1.85775   1.86699   1.87583   1.88855   1.91116
 Alpha virt. eigenvalues --    1.92459   1.94525   1.95944   1.96529   1.97535
 Alpha virt. eigenvalues --    1.98208   1.98983   2.00804   2.01278   2.03674
 Alpha virt. eigenvalues --    2.03815   2.04603   2.05386   2.06468   2.07095
 Alpha virt. eigenvalues --    2.08438   2.09028   2.10588   2.11206   2.12443
 Alpha virt. eigenvalues --    2.12770   2.14097   2.14457   2.15512   2.16469
 Alpha virt. eigenvalues --    2.17433   2.18077   2.18654   2.20157   2.20731
 Alpha virt. eigenvalues --    2.21882   2.23776   2.25435   2.25978   2.26720
 Alpha virt. eigenvalues --    2.27667   2.29151   2.29853   2.30763   2.31324
 Alpha virt. eigenvalues --    2.31948   2.32547   2.33236   2.34295   2.34693
 Alpha virt. eigenvalues --    2.35374   2.36323   2.36641   2.37118   2.37666
 Alpha virt. eigenvalues --    2.39352   2.39915   2.40781   2.42325   2.43562
 Alpha virt. eigenvalues --    2.44596   2.45224   2.45564   2.46624   2.47720
 Alpha virt. eigenvalues --    2.48347   2.48807   2.49983   2.52453   2.53088
 Alpha virt. eigenvalues --    2.54114   2.55019   2.55502   2.56774   2.57756
 Alpha virt. eigenvalues --    2.57970   2.59129   2.59243   2.59987   2.60553
 Alpha virt. eigenvalues --    2.60978   2.62324   2.62674   2.63697   2.64762
 Alpha virt. eigenvalues --    2.66192   2.66938   2.67198   2.68364   2.68835
 Alpha virt. eigenvalues --    2.70094   2.71018   2.72204   2.73759   2.74205
 Alpha virt. eigenvalues --    2.76048   2.76595   2.76744   2.77114   2.78933
 Alpha virt. eigenvalues --    2.79822   2.80545   2.83635   2.84055   2.85486
 Alpha virt. eigenvalues --    2.85920   2.87098   2.88418   2.89924   2.90613
 Alpha virt. eigenvalues --    2.94451   2.95553   2.96396   2.98429   2.98910
 Alpha virt. eigenvalues --    2.99865   3.01481   3.02745   3.04304   3.05143
 Alpha virt. eigenvalues --    3.07625   3.09231   3.09544   3.10726   3.11693
 Alpha virt. eigenvalues --    3.12095   3.12717   3.14430   3.14730   3.15436
 Alpha virt. eigenvalues --    3.17355   3.17854   3.18990   3.19457   3.20069
 Alpha virt. eigenvalues --    3.21047   3.22433   3.22762   3.23417   3.23728
 Alpha virt. eigenvalues --    3.24792   3.25236   3.26791   3.27553   3.28868
 Alpha virt. eigenvalues --    3.29051   3.29552   3.29974   3.30543   3.31861
 Alpha virt. eigenvalues --    3.32002   3.32492   3.33228   3.33973   3.34720
 Alpha virt. eigenvalues --    3.35269   3.36118   3.36749   3.37754   3.38566
 Alpha virt. eigenvalues --    3.39807   3.40410   3.41037   3.41581   3.43003
 Alpha virt. eigenvalues --    3.43681   3.43922   3.45016   3.45433   3.46946
 Alpha virt. eigenvalues --    3.47719   3.48348   3.48492   3.50189   3.50902
 Alpha virt. eigenvalues --    3.50997   3.52150   3.53291   3.54134   3.54867
 Alpha virt. eigenvalues --    3.56157   3.56761   3.57361   3.57978   3.59002
 Alpha virt. eigenvalues --    3.59149   3.61101   3.62098   3.65248   3.65956
 Alpha virt. eigenvalues --    3.67608   3.68027   3.69940   3.71148   3.73056
 Alpha virt. eigenvalues --    3.73789   3.75720   3.76950   3.79271   3.81421
 Alpha virt. eigenvalues --    3.82274   3.84720   3.86301   3.88550   3.90255
 Alpha virt. eigenvalues --    3.92737   3.95684   3.97316   3.98226   3.99788
 Alpha virt. eigenvalues --    4.03290   4.03958   4.04970   4.06900   4.08244
 Alpha virt. eigenvalues --    4.10952   4.12910   4.14115   4.15307   4.16503
 Alpha virt. eigenvalues --    4.17483   4.17791   4.19321   4.20145   4.22470
 Alpha virt. eigenvalues --    4.25226   4.26095   4.27657   4.29548   4.30071
 Alpha virt. eigenvalues --    4.32233   4.32601   4.34507   4.36168   4.39455
 Alpha virt. eigenvalues --    4.40128   4.41415   4.42738   4.43909   4.45512
 Alpha virt. eigenvalues --    4.46242   4.50483   4.51695   4.52653   4.54670
 Alpha virt. eigenvalues --    4.56782   4.57682   4.58501   4.61068   4.67221
 Alpha virt. eigenvalues --    4.69032   4.70267   4.72154   4.75669   4.78790
 Alpha virt. eigenvalues --    4.81121   4.82002   4.87660   4.90867   4.91660
 Alpha virt. eigenvalues --    4.96708   5.01437   5.02963   5.05405   5.07378
 Alpha virt. eigenvalues --    5.09343   5.12980   5.19800   5.20176   5.21753
 Alpha virt. eigenvalues --    5.24214   5.24546   5.25953   5.28458   5.29945
 Alpha virt. eigenvalues --    5.32639   5.39022   5.41704   5.44937   5.45833
 Alpha virt. eigenvalues --    5.47883   5.48964   5.51470   5.57577   5.59251
 Alpha virt. eigenvalues --    5.63319   5.65691   5.67141   5.75636   5.78773
 Alpha virt. eigenvalues --    5.79678   5.82011   5.91527   5.92696   6.01556
 Alpha virt. eigenvalues --    6.03891   6.09304   6.11132   6.14850   6.15292
 Alpha virt. eigenvalues --    6.15866   6.30432   6.31840   6.33644   6.37050
 Alpha virt. eigenvalues --    6.42155   6.42900   6.45723   6.50312   6.52830
 Alpha virt. eigenvalues --    6.62801   6.63746   6.65939   6.67575   6.77355
 Alpha virt. eigenvalues --    6.77907   6.79292   6.81354   6.83657   6.88410
 Alpha virt. eigenvalues --    6.90144   6.95544   6.98978   7.01608   7.04196
 Alpha virt. eigenvalues --    7.10259   7.11737   7.20400   7.22819   7.35434
 Alpha virt. eigenvalues --    7.37708   7.64686  22.36220  22.40501  22.53803
 Alpha virt. eigenvalues --   22.54454  22.62894  22.67840  22.71599  22.87594
 Alpha virt. eigenvalues --   22.92562  23.29270  23.34677  32.97343  44.10343
 Alpha virt. eigenvalues --   44.14359  44.20537  44.31224  44.37217
  Beta  occ. eigenvalues --  -19.68533 -19.67196 -19.62969 -19.62763 -19.61607
  Beta  occ. eigenvalues --  -14.84223 -10.68847 -10.67589 -10.61638 -10.61108
  Beta  occ. eigenvalues --  -10.60600 -10.59098 -10.55392 -10.55319 -10.54574
  Beta  occ. eigenvalues --  -10.54230 -10.52848  -1.23055  -1.21640  -1.17561
  Beta  occ. eigenvalues --   -1.13804  -1.12513  -0.97512  -0.92706  -0.87240
  Beta  occ. eigenvalues --   -0.83448  -0.81934  -0.80976  -0.78267  -0.72547
  Beta  occ. eigenvalues --   -0.70818  -0.69114  -0.65797  -0.62828  -0.60626
  Beta  occ. eigenvalues --   -0.58320  -0.57080  -0.56691  -0.56003  -0.55211
  Beta  occ. eigenvalues --   -0.53993  -0.53305  -0.52217  -0.51394  -0.50668
  Beta  occ. eigenvalues --   -0.49382  -0.48612  -0.47500  -0.46728  -0.46213
  Beta  occ. eigenvalues --   -0.45541  -0.44905  -0.44317  -0.43815  -0.43643
  Beta  occ. eigenvalues --   -0.42732  -0.41048  -0.39947  -0.39536  -0.38736
  Beta  occ. eigenvalues --   -0.38138  -0.37124  -0.35940  -0.34774  -0.32787
  Beta virt. eigenvalues --   -0.02628   0.02757   0.04480   0.05206   0.06439
  Beta virt. eigenvalues --    0.08013   0.08794   0.09248   0.10013   0.10903
  Beta virt. eigenvalues --    0.11547   0.12509   0.12602   0.13346   0.13882
  Beta virt. eigenvalues --    0.14623   0.14908   0.15168   0.15623   0.15964
  Beta virt. eigenvalues --    0.16796   0.17174   0.17354   0.18131   0.18799
  Beta virt. eigenvalues --    0.19442   0.20034   0.21039   0.21496   0.22545
  Beta virt. eigenvalues --    0.22778   0.24078   0.24345   0.24724   0.24903
  Beta virt. eigenvalues --    0.26054   0.26575   0.27126   0.28109   0.28225
  Beta virt. eigenvalues --    0.28628   0.29829   0.30238   0.31488   0.32314
  Beta virt. eigenvalues --    0.33355   0.33448   0.33701   0.34250   0.34824
  Beta virt. eigenvalues --    0.35845   0.36888   0.37417   0.37993   0.39269
  Beta virt. eigenvalues --    0.39956   0.40133   0.40898   0.41456   0.41787
  Beta virt. eigenvalues --    0.42576   0.43403   0.43546   0.44148   0.44634
  Beta virt. eigenvalues --    0.44877   0.45440   0.45992   0.46217   0.46420
  Beta virt. eigenvalues --    0.47188   0.47540   0.48112   0.48545   0.49115
  Beta virt. eigenvalues --    0.49283   0.49909   0.50312   0.50515   0.50938
  Beta virt. eigenvalues --    0.51443   0.51755   0.52588   0.52905   0.53083
  Beta virt. eigenvalues --    0.54107   0.55195   0.55608   0.56490   0.57372
  Beta virt. eigenvalues --    0.57874   0.58944   0.59192   0.60399   0.61083
  Beta virt. eigenvalues --    0.61812   0.62577   0.63390   0.64033   0.65166
  Beta virt. eigenvalues --    0.67513   0.68586   0.69083   0.69748   0.69944
  Beta virt. eigenvalues --    0.71367   0.72400   0.73146   0.73944   0.75152
  Beta virt. eigenvalues --    0.76171   0.77283   0.78483   0.79856   0.80462
  Beta virt. eigenvalues --    0.81992   0.82761   0.83700   0.84960   0.85452
  Beta virt. eigenvalues --    0.86921   0.87673   0.88493   0.89498   0.89615
  Beta virt. eigenvalues --    0.90871   0.90953   0.92298   0.93415   0.93881
  Beta virt. eigenvalues --    0.94678   0.95376   0.96127   0.97231   0.97717
[...]
 0.00009878,0.00000868,-0.00003854,-0.00004650,-0.00002141,0.00000518,0
 .00000177,-0.00005964,0.00002418,-0.00002529,-0.00027178,0.00002544,-0
 .00021319,0.00001314,0.00001946,0.00002546,0.00197454,-0.00236922,-0.0
 0077094,0.00004253,-0.00001561,0.00002266,0.00005867,0.00046036,-0.000
 04005,-0.00040051,-0.00012880,0.00076048,-0.00529570,0.01042341,-0.006
 83989,-0.00040852,-0.00120748,-0.00050324,0.00015195,-0.00025605,-0.00
 002440,-0.12477210,-0.00293142,-0.24337401,0.00002189,0.00038255,0.000
 07757,0.00000843,-0.00000398,0.00003447,0.00001638,0.00002174,-0.00000
 825,0.00001415,0.00001230,-0.00000240,-0.00009047,-0.00002853,0.000000
 63,0.00003365,0.00005683,-0.00001662,0.00007655,0.00000474,0.00005819,
 -0.00000318,-0.00002204,-0.00000272,-0.00000763,0.00001467,-0.00000658
 ,0.00001145,0.00000152,0.00000067,0.00000873,0.00001572,-0.00000224,-0
 .00000397,-0.00001722,-0.00000375,-0.00000641,0.00000902,0.00001113,0.
 13717307,-0.00252834,0.26088995,0.00005429,-0.00002041,-0.00003291,-0.
 00003667,-0.00012806,0.00001461,-0.00006943,0.00001640,0.00005517,0.00
 002661,-0.00003151,-0.00001827,-0.00001058,0.00004240,-0.00004256,0.00
 001180,0.00002345,0.00002481,-0.00064447,-0.00017465,-0.00036990,0.000
 03429,0.00007888,-0.00000360,0.00020082,0.00090275,0.00085594,0.000041
 59,-0.00001156,0.00001845,0.00018070,0.00045337,-0.00026493,0.00000317
 ,0.00153036,0.00007719,0.01225661,0.00197292,-0.00020270,-0.00009119,-
 0.00056016,0.00007777,-0.00010430,-0.00013232,0.00009364,-0.27421258,-
 0.10283309,0.03730477,0.00006318,0.00014592,0.00003669,0.00000589,-0.0
 0001640,0.00001426,0.00000412,0.00001446,-0.00000774,0.00001579,-0.000
 00225,0.00000250,0.00001248,0.00003610,-0.00003232,0.00001410,-0.00000
 701,-0.00002423,-0.00000023,-0.00000446,-0.00000766,-0.00001049,-0.000
 00040,-0.00000859,-0.00002392,0.00001164,0.00001594,0.00001202,0.00000
 302,-0.00000210,0.00000295,0.00001047,0.00000146,-0.00000364,-0.000018
 18,-0.00000345,-0.00000233,0.00000935,0.00000582,-0.01419337,-0.005784
 47,0.00416052,0.28737725,-0.00003212,-0.00003997,-0.00007814,0.0000768
 9,0.00031005,0.00009338,0.00003354,0.00004700,-0.00002092,0.00003803,0
 .00001972,0.00004471,-0.00009660,0.00006123,0.00015764,-0.00011591,0.0
 0018020,-0.00012947,0.00121553,0.00004039,0.00014313,-0.00016000,-0.00
 027650,0.00001653,-0.00552894,0.00204695,0.00749993,-0.00000310,0.0000
 0950,-0.00000577,0.00037164,-0.00003861,-0.00007381,0.00155926,0.00123
 439,-0.00335772,-0.02597653,-0.03371658,0.00732139,-0.00020506,0.00010
 338,-0.00005920,-0.00020490,0.00017128,0.00005673,-0.09301660,-0.09121
 085,0.01511441,0.00004383,-0.00022741,-0.00000798,-0.00001087,-0.00001
 843,-0.00002538,-0.00001410,-0.00001392,0.00000171,-0.00000624,-0.0001
 1889,0.00003197,0.00017467,-0.00013846,-0.00007842,0.00000033,-0.00004
 936,0.00001170,-0.00005583,0.00001912,-0.00002191,0.00003275,-0.000014
 93,-0.00001988,0.00010822,-0.00003360,-0.00004349,0.00000987,-0.000002
 73,0.00003085,-0.00000584,-0.00000816,0.00000196,-0.00000114,0.0000023
 6,0.00000033,0.00000139,-0.00000543,-0.00000738,-0.00096327,0.00184407
 ,-0.00109593,0.10956147,0.11120071,0.00005439,0.00004774,0.00003519,-0
 .00003114,-0.00003002,-0.00008253,-0.00009505,-0.00001817,0.00009527,-
 0.00000389,-0.00002785,-0.00002906,0.00000152,-0.00005222,-0.00005077,
 0.00006159,0.00004651,0.00007220,0.00003742,0.00009707,-0.00004904,0.0
 0007647,0.00005966,0.00001151,-0.00013972,-0.00209756,0.00075876,0.000
 03788,-0.00001220,0.00001195,0.00028469,0.00037022,-0.00038009,-0.0003
 4353,0.00055260,-0.00042630,0.00839002,0.01085681,-0.00285178,-0.00016
 740,-0.00068111,0.00010638,-0.00016760,-0.00008854,0.00016042,0.036659
 90,0.01657392,-0.05682117,0.00000984,0.00002618,0.00000422,0.00000858,
 0.00000617,0.00003188,0.00000683,0.00000619,-0.00000922,0.00001350,0.0
 0004571,-0.00001385,-0.00006582,-0.00002910,0.00004518,-0.00002002,0.0
 0001781,-0.00003296,0.00001314,-0.00000845,-0.00000604,0.00000895,-0.0
 0004118,-0.00000657,-0.00002632,0.00002315,-0.00001176,-0.00001107,-0.
 00000073,0.00000125,0.00000737,0.00000885,-0.00000050,-0.00000621,-0.0
 0001502,-0.00000153,-0.00000563,0.00000874,0.00000730,-0.02417440,-0.0
 1152032,0.00601638,-0.04189626,-0.02435186,0.05573876,0.00001939,0.000
 01829,0.00002403,0.00000923,0.00012245,-0.00005475,-0.00004631,-0.0000
 2334,0.00002893,0.00000613,0.00000008,-0.00000220,0.00001752,-0.000038
 74,-0.00004311,0.00003784,0.00003604,0.00006563,0.00008421,-0.00006183
 ,0.00019588,0.00002216,0.00003291,-0.00001527,0.00022790,-0.00022888,-
 0.00032901,0.00000764,-0.00000058,-0.00001209,0.00009429,-0.00003714,-
 0.00008599,0.00053679,0.00078701,-0.00006718,-0.00192485,0.00376826,0.
 00202186,-0.00002858,0.00002348,0.00013024,-0.00012605,0.00009190,0.00
 007428,-0.11803805,0.05934215,0.10032518,-0.00001806,-0.00018511,-0.00
 002680,-0.00000359,0.00000448,0.00000251,0.00000180,-0.00000553,-0.000
 00072,0.00000798,0.00004123,-0.00001984,-0.00000995,0.00008103,0.00002
 906,-0.00000516,0.00000293,-0.00002763,-0.00002584,0.00000891,0.000014
 45,0.00000942,-0.00002014,-0.00001374,-0.00001146,0.00001679,-0.000005
 35,-0.00000271,-0.00000764,0.00000545,0.00000451,-0.00000121,0.0000012
 2,-0.00000407,0.00000070,0.00000176,-0.00000339,-0.00000159,-0.0000012
 7,0.01094462,-0.00899642,-0.01249741,-0.01092970,0.01318624,0.02145159
 ,0.11914519,-0.00010082,-0.00004343,-0.00008169,0.00001083,-0.00014234
 ,0.00012481,0.00015984,0.00000769,-0.00012482,-0.00006865,0.00005615,-
 0.00001897,0.00011021,-0.00014866,0.00007221,0.00002354,0.00007970,-0.
 00018015,0.00093677,-0.00022184,-0.00111898,-0.00013999,-0.00043758,0.
 00016785,-0.00223715,-0.00415429,0.00680474,-0.00004862,0.00001124,0.0
 0002015,0.00032960,-0.00019141,-0.00019680,0.00010850,0.00210201,-0.00
 103766,0.02132798,-0.03141791,-0.02615755,-0.00018927,0.00009597,0.000
 07141,-0.00024967,0.00018691,0.00013931,0.05406550,-0.09694659,-0.0869
 5664,-0.00000488,-0.00022626,-0.00002005,0.00001441,0.00003139,0.00000
 994,-0.00001662,-0.00002138,0.00001380,-0.00003762,0.00000161,0.000023
 56,-0.00004504,-0.00005622,-0.00003071,-0.00003382,-0.00002475,0.00006
 737,0.00001012,-0.00000905,-0.00000132,-0.00001726,0.00002701,0.000006
 70,0.00014909,-0.00009100,-0.00002339,0.00001290,0.00001305,0.00000892
 ,-0.00001982,-0.00001689,-0.00000412,0.00000704,0.00001235,-0.00000054
 ,0.00001489,-0.00000073,0.00000211,-0.00101549,0.00141401,-0.00066323,
 -0.00499294,0.00853370,0.01023081,-0.06802401,0.12144526,-0.00002885,-
 0.00003041,0.00002564,0.00001856,0.00004842,0.00000145,0.00001994,-0.0
 0001118,-0.00000413,0.00001457,-0.00001865,0.00000686,-0.00003566,0.00
 000889,0.00000052,0.00001200,-0.00004709,0.00002078,-0.00016875,0.0002
 3160,0.00044185,-0.00000372,0.00002611,-0.00003106,0.00065204,0.003367
 07,-0.00250805,-0.00000060,0.00000837,0.00000006,0.00048886,0.00002539
 ,-0.00043535,0.00016856,-0.00206002,0.00130035,-0.00853666,0.01030975,
 0.01147566,-0.00034661,-0.00027037,0.00022199,-0.00045977,0.00024144,0
 .00022911,0.10430967,-0.09880471,-0.21374768,0.00004836,-0.00039499,-0
 .00005257,-0.00000868,-0.00000295,-0.00000609,-0.00000995,-0.00000996,
 0.00000579,-0.00000296,-0.00001208,0.00000623,0.00007575,-0.00009149,0
 .00002050,-0.00001392,-0.00001590,0.00001029,-0.00002874,-0.00000058,-
 0.00002223,-0.00001622,0.00002336,0.00001971,-0.00002050,-0.00000286,0
 .00001628,-0.00001514,0.00000655,-0.00000526,-0.00000762,-0.00000891,0
 .00000237,-0.00000167,0.00000092,0.00000117,0.00000590,0.00000149,-0.0
 0000173,0.01486827,-0.01034792,-0.01595821,0.00021757,-0.00116719,-0.0
 0224721,-0.11117421,0.09886921,0.22117484,-0.00002980,-0.00000597,0.00
 004744,-0.00003967,-0.00001421,-0.00004283,-0.00044067,-0.00033731,-0.
 00084721,-0.00002471,0.00012242,0.00004820,-0.00000176,0.00012689,0.00
 004516,0.00000215,-0.00003768,0.00000129,0.00000935,0.00003827,0.00000
 420,-0.00001504,-0.00002061,-0.00000189,-0.00012829,0.00026671,0.00019
 831,-0.00003255,-0.00008783,-0.00000513,0.00346685,0.00262093,-0.00146
 455,0.00005771,-0.00006408,-0.00009117,0.00020811,-0.00019822,-0.00012
 355,-0.00078139,-0.00056735,0.00128174,0.00890364,0.02388361,0.0079398
 4,-0.00010554,0.00005829,-0.00007506,-0.13611316,-0.12329847,-0.045916
 01,0.00000564,0.00001812,-0.00005720,-0.00000230,-0.00002609,0.0000328
 1,0.00000502,-0.00003300,0.00000129,0.00007305,-0.00010079,-0.00000632
 ,0.00000919,-0.00000595,0.00000035,-0.00001155,0.00000153,-0.00000579,
 -0.00000083,0.00000615,0.00000214,0.00000586,-0.00000605,0.00000043,-0
 .00000618,0.00000321,0.00000049,-0.00006249,-0.00004339,-0.00002267,-0
 .00002394,-0.00000864,0.00001874,0.00000042,0.00000927,0.00002860,-0.0
 0002572,-0.00003691,0.00015599,0.00004774,-0.00003264,0.00002810,-0.00
 003189,-0.00006558,-0.00006662,0.13941313,0.00011003,0.00002694,-0.000
 03526,0.00010031,-0.00006609,0.00006490,0.00019847,0.00019375,0.000235
 76,-0.00008724,-0.00001529,-0.00005490,0.00002261,-0.00016238,-0.00001
 506,0.00002197,0.00007020,0.00001007,-0.00004647,-0.00004782,-0.000086
 24,0.00002467,0.00003073,0.00002321,0.00012576,-0.00031724,-0.00022013
 ,-0.00001125,-0.00003552,0.00007691,-0.00728463,-0.00161897,0.00451109
 ,-0.00002811,0.00008583,0.00010390,-0.00011735,0.00021024,0.00016006,0
 .00109923,0.00252488,-0.00199022,-0.00045531,-0.03679711,-0.00585892,0
 .00001280,-0.00006695,-0.00003888,-0.11413194,-0.21017969,-0.06124075,
 0.00005325,-0.00000030,0.00003739,0.00001112,0.00005957,-0.00013159,0.
 00001359,0.00002155,0.00002641,0.00005998,-0.00005399,0.00003365,-0.00
 002321,0.00000787,0.00000275,0.00003115,0.00000119,0.00000875,-0.00000
 918,-0.00000703,-0.00000190,-0.00001007,0.00000434,-0.00000313,0.00001
 953,-0.00000153,0.00000150,0.00011941,0.00013280,0.00001447,0.00006581
 ,-0.00001057,-0.00005472,-0.00000072,-0.00000595,-0.00001181,0.0000858
 9,0.00002164,-0.00003363,-0.00003991,0.00003176,-0.00000508,0.00000950
 ,0.00005115,0.00002600,0.12179532,0.24154725,-0.00000690,0.00001150,-0
 .00000961,0.00002118,0.00003297,-0.00002773,0.00002201,-0.00001635,-0.
 00018235,0.00000780,0.00007631,0.00003294,-0.00000388,0.00014752,-0.00
 000281,-0.00001525,-0.00006114,0.00002547,0.00003044,-0.00001705,0.000
 05954,0.00000322,0.00000864,-0.00002138,0.00010120,-0.00009121,0.00004
 114,-0.00001774,0.00002096,-0.00006098,-0.00050864,-0.00180220,0.00145
 870,-0.00004122,0.00004806,-0.00005404,-0.00006618,0.00011687,-0.00010
 920,-0.00059167,0.00127147,-0.00043263,0.00474843,0.00951374,0.0035047
 2,0.00004615,-0.00007224,0.00029960,-0.04394751,-0.06353499,-0.0749241
 9,-0.00000912,-0.00000364,-0.00004279,0.00000839,0.00000845,0.00002161
 ,0.00000237,-0.00000981,-0.00001420,0.00000094,-0.00011102,0.00004089,
 0.00002724,0.00000388,-0.00001740,-0.00000309,-0.00000010,0.00000266,0
 .00000786,-0.00000627,-0.00000274,-0.00000294,0.00000771,0.00000117,-0
 .00000473,-0.00000276,0.00000163,-0.00001532,-0.00000317,-0.00002350,0
 .00000414,0.00001557,0.00002551,-0.00003047,-0.00000658,0.00001633,0.0
 0014911,0.00001932,-0.00012927,-0.00004555,0.00000488,-0.00008507,-0.0
 0001610,-0.00003865,0.00000719,0.04866452,0.06479597,0.07203304,-0.000
 05338,-0.00000643,0.00002909,-0.00016645,0.00028641,-0.00010287,-0.000
 35675,-0.00033445,0.00047769,-0.00004564,0.00000405,0.00010787,0.00002
 546,0.00002748,-0.00003039,-0.00000530,-0.00001957,0.00001126,0.000065
 26,0.00001144,0.00009532,-0.00000913,-0.00001072,-0.00002480,0.0000825
 1,0.00000731,-0.00002793,-0.00010292,0.00003637,-0.00006525,0.00137398
 ,0.00253186,-0.00218128,-0.00004695,-0.00001917,0.00002157,-0.00005538
 ,-0.00003171,-0.00002368,0.00026321,-0.00000663,0.00022423,-0.02022746
 ,0.00551571,0.00859857,0.00001695,0.00003581,0.00005143,-0.24675289,-0
 .02078724,0.12427326,-0.00000788,0.00001894,-0.00005311,-0.00001717,0.
 00002781,0.00001261,-0.00002759,0.00001470,-0.00003406,-0.00001390,-0.
 00001860,0.00005523,0.00000668,0.00000645,-0.00000313,-0.00000358,-0.0
 0000388,-0.00000631,0.00001099,-0.00000052,-0.00000021,0.00000290,0.00
 000395,0.00000231,-0.00001490,-0.00000249,-0.00000122,0.00000089,-0.00
 000404,0.00000258,0.00001350,0.00005322,0.00002523,0.00000069,-0.00000
 624,-0.00000700,0.00003772,0.00002291,-0.00004487,-0.00002694,0.000005
 74,-0.00001577,0.00001165,0.00000536,0.00001694,-0.01175883,-0.0013668
 2,0.00928560,0.26956569,0.00005639,0.00001341,-0.00009576,0.00030827,-
 0.00038743,0.00012212,0.00095558,0.00054237,-0.00064934,0.00003629,0.0
 0004256,-0.00012850,-0.00001843,-0.00001740,0.00002039,-0.00000462,0.0
 0000481,-0.00001139,-0.00005142,-0.00004082,-0.00006753,0.00002196,0.0
 0002782,0.00001409,0.00011556,-0.00022344,-0.00008654,0.00008837,0.000
 05072,0.00002872,-0.00059327,-0.00676531,0.00437265,-0.00003752,0.0000
 7556,0.00002600,-0.00011148,0.00019391,0.00005351,-0.00085844,0.002759
 45,-0.00074510,0.03782885,-0.00705520,-0.01763040,0.00004514,-0.000105
 45,0.00006243,-0.03166057,-0.04999578,0.01642307,-0.00000147,-0.000020
 00,0.00004199,-0.00000109,-0.00000300,0.00003624,0.00001118,0.00001319
 ,0.00001286,-0.00000276,-0.00001934,0.00001008,0.00000048,0.00000258,-
 0.00000345,0.00000270,-0.00000160,0.00001508,-0.00000629,-0.00000684,-
 0.00000176,-0.00000797,0.00000543,-0.00000191,0.00001497,-0.00000108,0
 .00000079,-0.00000340,-0.00002585,-0.00000329,-0.00002081,-0.00003825,
 -0.00001807,-0.00001308,-0.00001197,-0.00000595,0.00006856,0.00001077,
 -0.00007370,-0.00003865,0.00002703,-0.00002131,0.00002137,0.00003279,0
 .00004841,-0.01956504,0.00108814,0.01463792,0.01439234,0.05931408,0.00
 000361,-0.00001451,0.00002191,-0.00006944,0.00003259,-0.00001393,-0.00
 023640,-0.00001248,0.00030802,-0.00000659,-0.00006708,0.00003032,-0.00
 000047,0.00000979,-0.00001261,-0.00000300,-0.00000511,0.00000179,-0.00
 001779,0.00000867,0.00000194,-0.00000428,-0.00000061,-0.00000496,-0.00
 004162,-0.00000438,-0.00004805,0.00003290,0.00000302,-0.00002860,-0.00
 040530,0.00262533,-0.00111041,0.00002333,0.00000157,0.00002338,0.00002
 207,0.00003926,0.00002415,0.00074032,-0.00120619,0.00099150,-0.0102671
 7,0.00097528,0.00554287,0.00000134,-0.00003669,-0.00001273,0.13058561,
 0.01025326,-0.13492120,0.00002303,-0.00000813,0.00000251,0.00002652,0.
 00003384,-0.00000768,-0.00000687,0.00000368,-0.00000445,-0.00000637,-0
 .00002317,0.00001272,0.00000394,-0.00000250,-0.00000107,0.00000295,0.0
 0000275,-0.00000045,-0.00000014,0.00000116,-0.00000115,0.00000041,-0.0
 0000139,0.00000106,-0.00000058,0.00000063,0.00000157,0.00001606,-0.000
 00637,0.00001787,-0.00000741,-0.00000379,0.00000985,0.00000218,0.00001
 940,0.00000455,0.00000907,-0.00001066,-0.00002749,-0.00000598,0.000010
 21,0.00000089,0.00000922,0.00000811,0.00002546,-0.00967852,-0.00026726
 ,0.00634134,-0.13720381,-0.01541900,0.13562929,-0.00004151,-0.00002196
 ,0.00006252,0.00000866,-0.00001310,0.00000810,0.00026802,0.00036191,0.
 00059302,0.00003414,-0.00005575,0.00002250,0.00001251,-0.00000929,0.00
 001455,0.00000358,0.00000221,-0.00002645,-0.00001518,0.00002826,-0.000
 01092,-0.00000758,-0.00001019,0.00000727,-0.00003606,0.00005568,-0.000
 12448,-0.00012631,0.00015718,-0.00008840,0.00438480,0.00244124,-0.0056
 4542,0.00001972,-0.00004624,0.00009134,0.00003114,-0.00001872,0.000089
 75,-0.00063898,-0.00236963,0.00169481,-0.01100423,0.00900966,-0.018203
 27,-0.00002061,0.00000209,-0.00008841,-0.05903104,0.00071868,-0.043767
 33,-0.00004870,0.00000073,0.00002613,-0.00007499,-0.00004120,0.0000899
 9,-0.00001621,0.00001011,-0.00000901,0.00003375,0.00001277,0.00002097,
 -0.00000764,-0.00000239,0.00000929,-0.00001169,-0.00000247,0.00000188,
 -0.00000353,0.00000537,0.00000154,0.00000379,-0.00000441,0.00000022,-0
 .00000149,0.00000134,-0.00000122,-0.00001922,-0.00004166,-0.00000735,0
 .00002199,0.00004772,0.00005289,-0.00000348,0.00002131,0.00001607,-0.0
 0002605,-0.00001690,-0.00002486,-0.00000556,0.00001031,0.00001804,0.00
 002143,0.00002067,0.00002984,-0.00257157,-0.00036820,-0.01780428,0.008
 21492,-0.00097170,0.02645919,0.06065318,0.00007469,-0.00000334,-0.0000
 5000,-0.00005913,-0.00004973,-0.00002625,-0.00038307,-0.00041099,-0.00
 044805,-0.00004877,-0.00007486,-0.00004233,-0.00001908,-0.00007456,-0.
 00002842,0.00000758,0.00002372,0.00002032,-0.00004516,-0.00000963,-0.0
 0003913,0.00000632,0.00001399,0.00000329,0.00001766,-0.00013593,-0.000
 13680,0.00018989,-0.00008026,0.00013188,-0.00446212,0.00021471,0.00393
 147,0.00000882,0.00004244,0.00006385,-0.00006097,0.00013120,0.00009872
 ,0.00146816,0.00084119,-0.00130432,0.01730920,-0.01300409,0.03311253,0
 .00001227,-0.00010116,-0.00011029,-0.00057160,-0.04969250,0.00236136,0
 .00011483,-0.00001727,0.00002712,0.00010790,0.00008779,-0.00012953,0.0
 0001962,-0.00000478,0.00002164,-0.00000281,-0.00005336,-0.00002507,-0.
 00000418,0.00000308,-0.00000206,0.00002563,0.00000511,-0.00000084,-0.0
 0000382,-0.00000187,-0.00000207,-0.00000454,0.00000043,0.00000011,0.00
 000831,0.,0.00000251,-0.00000265,0.00000316,0.00008383,-0.00007560,-0.
 00007781,-0.00007376,0.00006201,-0.00001546,-0.00006017,-0.00001151,-0
 .00001343,-0.00003301,-0.00001654,0.00003100,0.00002258,0.00003636,0.0
 0004837,0.00005429,-0.00439491,0.00327659,-0.02496455,-0.00038934,0.00
 051416,0.00306076,-0.00891344,0.05858410,-0.00002315,0.00001216,0.0000
 4251,-0.00004333,0.00003217,0.00001460,-0.00029652,-0.00028485,-0.0003
 7734,0.00003221,0.00010200,-0.00004192,0.00000949,-0.00002483,0.000035
 85,0.00000785,0.00001124,-0.00001599,0.00000053,0.00000970,-0.00001013
 ,-0.00000026,-0.00000339,0.00000710,0.00007485,-0.00001994,-0.00005875
 ,0.00004810,-0.00005669,0.00002538,0.00327243,0.00036299,-0.00090196,-
 0.00003627,-0.00001815,0.00004629,-0.00006470,-0.00003685,0.00003029,0
 .00021455,-0.00131436,0.00097203,-0.00520904,0.00810427,-0.00007219,-0
 .00000057,0.00005028,-0.00004332,-0.05075675,0.00965553,-0.31566616,-0
 .00005474,0.00001579,-0.00001163,-0.00004040,-0.00006044,0.00004882,-0
 .00000139,0.00000354,-0.00000045,0.00003416,0.00002839,0.00000902,-0.0
 0000957,0.00000468,0.00000637,-0.00000759,-0.00000509,0.00000222,-0.00
 000098,0.00000059,0.00000214,0.00000090,0.00000050,-0.00000152,-0.0000
 0075,0.00000003,-0.00000212,-0.00003517,-0.00001353,-0.00003087,-0.000
 01994,-0.00002616,-0.00000630,-0.00001337,0.00000583,0.00001475,-0.000
 01490,0.00001360,-0.00000705,-0.00000837,0.00000302,0.00000791,0.00001
 139,0.00001424,0.00000550,-0.00009511,-0.00008332,-0.00777360,-0.00346
 509,-0.00096335,-0.01279816,0.05649149,-0.01551961,0.33654865\\-0.0000
 0090,-0.00000060,-0.00000126,0.00000144,0.00000470,0.00000440,0.000007
 17,-0.00000429,-0.00000040,-0.00000254,0.00000050,0.00000055,-0.000000
 55,-0.00000150,-0.00000154,-0.00000118,0.00000185,0.00000193,-0.000002
 32,-0.00000923,-0.00000644,0.00000015,0.00000020,0.00000143,-0.0000081
 9,0.00000728,0.00000859,-0.00000183,-0.00000183,-0.00000001,0.00000380
 ,0.00001114,-0.00000198,0.00000226,-0.00000256,-0.00000175,0.00000789,
 -0.00000080,-0.00000495,0.00000192,-0.00000431,0.00000138,-0.00000353,
 -0.00000287,-0.00000373,-0.00000136,-0.00000744,0.00000429,0.00000181,
 0.00000201,0.00000289,-0.00000081,-0.00000044,-0.00000005,0.00000023,-
 0.00000003,-0.00000173,-0.00000086,0.00000053,0.00000065,-0.00000117,-
 0.00000090,0.00000071,-0.00000085,0.00000018,-0.00000009,0.,0.00000052
 ,-0.00000042,-0.00000037,0.00000060,0.00000124,-0.00000097,-0.00000119
 ,0.00000163,-0.00000034,-0.00000127,-0.00000021,-0.00000103,0.00000182
 ,-0.00000106,0.00000174,0.00000243,0.00000101,-0.00000065,0.00000012,-
 0.00000033,0.,0.00000139,-0.00000115,0.00000105,0.00000081,0.00000039,
 -0.00000005,0.00000141,0.00000003,0.00000168,-0.00000010,-0.00000195,-
 0.00000008,0.00000100,-0.00000132,-0.00000154,0.00000085,-0.00000072\\
 \@
 The archive entry for this job was punched.


 PERICLES, SOPHOCLES,
 PELOPONESIAN WAR,
 FRENCH VERBS, LATIN VERBS
 H2SO4.
 Job cpu time:       2 days  7 hours 18 minutes 22.0 seconds.
 Elapsed time:       0 days  2 hours 45 minutes 56.0 seconds.
 File lengths (MBytes):  RWF=   2256 Int=      0 D2E=      0 Chk=     46 Scr=      1
 Normal termination of Gaussian 16 at Fri Jan 10 05:04:27 2025.
