 Entering Gaussian System, Link 0=g16
 Input=gjfs/data_set_3-catalyst-Mix_15_opt.gjf
 Output=gjfs/data_set_3-catalyst-Mix_15_opt.log
 Initial command:
 /usr/local/intel/g16/l1.exe "/scr/Gau-1189873.inp" -scrdir="/scr/"
 Entering Link 1 = /usr/local/intel/g16/l1.exe PID=   1189875.
  
 Copyright (c) 1988-2019, Gaussian, Inc.  All Rights Reserved.
  
 This is part of the Gaussian(R) 16 program.  It is based on
 the Gaussian(R) 09 system (copyright 2009, Gaussian, Inc.),
 the Gaussian(R) 03 system (copyright 2003, Gaussian, Inc.),
 the Gaussian(R) 98 system (copyright 1998, Gaussian, Inc.),
 the Gaussian(R) 94 system (copyright 1995, Gaussian, Inc.),
 the Gaussian 92(TM) system (copyright 1992, Gaussian, Inc.),
 the Gaussian 90(TM) system (copyright 1990, Gaussian, Inc.),
 the Gaussian 88(TM) system (copyright 1988, Gaussian, Inc.),
 the Gaussian 86(TM) system (copyright 1986, Carnegie Mellon
 University), and the Gaussian 82(TM) system (copyright 1983,
 Carnegie Mellon University). Gaussian is a federally registered
 trademark of Gaussian, Inc.
  
 This software contains proprietary and confidential information,
 including trade secrets, belonging to Gaussian, Inc.
  
 This software is provided under written license and may be
 used, copied, transmitted, or stored only in accord with that
 written license.
  
 The following legend is applicable only to US Government
 contracts under FAR:
  
                    RESTRICTED RIGHTS LEGEND
  
 Use, reproduction and disclosure by the US Government is
 subject to restrictions as set forth in subparagraphs (a)
 and (c) of the Commercial Computer Software - Restricted
 Rights clause in FAR 52.227-19.
  
 Gaussian, Inc.
 340 Quinnipiac St., Bldg. 40, Wallingford CT 06492
  
  
 ---------------------------------------------------------------
 Warning -- This program may not be used in any manner that
 competes with the business of Gaussian, Inc. or will provide
 assistance to any competitor of Gaussian, Inc.  The licensee
 of this program is prohibited from giving any competitor of
 Gaussian, Inc. access to this program.  By using this program,
 the user acknowledges that Gaussian, Inc. is engaged in the
 business of creating and licensing software in the field of
 computational chemistry and represents and warrants to the
 licensee that it is not a competitor of Gaussian, Inc. and that
 it will not use this program in any manner prohibited above.
 ---------------------------------------------------------------
  

 Cite this work as:
 Gaussian 16, Revision C.01,
 M. J. Frisch, G. W. Trucks, H. B. Schlegel, G. E. Scuseria, 
 M. A. Robb, J. R. Cheeseman, G. Scalmani, V. Barone, 
 G. A. Petersson, H. Nakatsuji, X. Li, M. Caricato, A. V. Marenich, 
 J. Bloino, B. G. Janesko, R. Gomperts, B. Mennucci, H. P. Hratchian, 
 J. V. Ortiz, A. F. Izmaylov, J. L. Sonnenberg, D. Williams-Young, 
 F. Ding, F. Lipparini, F. Egidi, J. Goings, B. Peng, A. Petrone, 
 T. Henderson, D. Ranasinghe, V. G. Zakrzewski, J. Gao, N. Rega, 
 G. Zheng, W. Liang, M. Hada, M. Ehara, K. Toyota, R. Fukuda, 
 J. Hasegawa, M. Ishida, T. Nakajima, Y. Honda, O. Kitao, H. Nakai, 
 T. Vreven, K. Throssell, J. A. Montgomery, Jr., J. E. Peralta, 
 F. Ogliaro, M. J. Bearpark, J. J. Heyd, E. N. Brothers, K. N. Kudin, 
 V. N. Staroverov, T. A. Keith, R. Kobayashi, J. Normand, 
 K. Raghavachari, A. P. Rendell, J. C. Burant, S. S. Iyengar, 
 J. Tomasi, M. Cossi, J. M. Millam, M. Klene, C. Adamo, R. Cammi, 
 J. W. Ochterski, R. L. Martin, K. Morokuma, O. Farkas, 
 J. B. Foresman, and D. J. Fox, Gaussian, Inc., Wallingford CT, 2019.
 
 ******************************************
 Gaussian 16:  ES64L-G16RevC.01  3-Jul-2019
                 9-Jan-2025 
 ******************************************
 %nprocshared=20
 Will use up to   20 processors via shared memory.
 %mem=30GB
 %chk=outputs/data_set_3-catalyst-Mix_15_opt.chk
 ----------------------------------
 #p M062X/DEF2TZVP opt freq pop=NBO
 ----------------------------------
 1/18=20,19=15,26=3,38=1/1,3;
 2/9=110,12=2,17=6,18=5,40=1/2;
 3/5=44,7=101,11=2,25=1,30=1,71=1,74=-55/1,2,3;
 4//1;
 5/5=2,38=5/2;
 6/7=2,8=2,9=2,10=2,28=1,40=1/1,7;
 7//1,2,3,16;
 1/18=20,19=15,26=3/3(2);
 2/9=110/2;
 99//99;
 2/9=110/2;
 3/5=44,7=101,11=2,25=1,30=1,71=1,74=-55/1,2,3;
 4/5=5,16=3,69=1/1;
 5/5=2,38=5/2;
 7//1,2,3,16;
 1/18=20,19=15,26=3/3(-5);
 2/9=110/2;
 6/7=2,8=2,9=2,10=2,19=2,28=1,40=1/1,7;
 99/9=1/99;
 Leave Link    1 at Thu Jan  9 14:04:53 2025, MaxMem=  4026531840 cpu:               0.9 elap:               0.1
 (Enter /usr/local/intel/g16/l101.exe)
 ------------------------------
 data_set_3-catalyst-Mix_15_opt
 ------------------------------
 Symbolic Z-matrix:
 Charge =  0 Multiplicity = 2
 O                    -1.18322   0.69311  -1.76484 
 N                    -0.98281   0.60593  -0.45773 
 C                    -1.70948  -0.50234   0.26766 
 C                     0.21725   1.38686   0.01687 
 C                    -2.75243  -1.09075  -0.70694 
 C                    -2.47751   0.03888   1.4952 
 C                     0.23829   1.60749   1.54047 
 C                     0.10533   2.78248  -0.64644 
 H                    -3.31275  -1.8715   -0.18078 
 H                    -2.28771  -1.52418  -1.5933 
 H                    -3.44893  -0.31959  -1.04501 
 H                    -3.15812  -0.73895   1.85786 
 H                    -3.07611   0.91061   1.21167 
 H                    -1.8268    0.31578   2.32536 
 H                     0.23957   0.68757   2.12684 
 H                    -0.61512   2.21598   1.85254 
 H                     1.15303   2.15623   1.79119 
 H                    -0.87215   3.22572  -0.43199 
 H                     0.21501   2.70859  -1.72922 
 H                     0.88558   3.4409   -0.24885 
 C                    -0.70643  -1.61898   0.67583 
 C                     2.13138  -0.46313   0.28392 
 C                     1.54208   0.7335   -0.49594 
 H                    -1.30397  -2.46527   1.03459 
 H                    -0.11301  -1.29037   1.53668 
 H                     1.88274  -0.36407   1.34924 
 H                     1.40743   0.47096  -1.55129 
 H                     2.29414   1.53446  -0.46948 
 C                     0.22187  -2.05667  -0.48578 
 C                     1.72398  -1.85626  -0.21597 
 H                    -0.04947  -1.50668  -1.39382 
 H                     0.05839  -3.11482  -0.71616 
 O                     3.59158  -0.46682   0.16121 
 H                     2.28237  -2.03814  -1.14179 
 H                     2.08015  -2.58898   0.51794 
 H                     3.97264   0.33745   0.55787 
 
 ITRead=  0  0  0  0  0  0  0  0  0  0  0  0  0  0  0  0  0  0  0  0
 ITRead=  0  0  0  0  0  0  0  0  0  0  0  0  0  0  0  0
 MicOpt= -1 -1 -1 -1 -1 -1 -1 -1 -1 -1 -1 -1 -1 -1 -1 -1 -1 -1 -1 -1
 MicOpt= -1 -1 -1 -1 -1 -1 -1 -1 -1 -1 -1 -1 -1 -1 -1 -1
 NAtoms=     36 NQM=       36 NQMF=       0 NMMI=      0 NMMIF=      0
                NMic=       0 NMicF=      0.
                    Isotopes and Nuclear Properties:
 (Nuclear quadrupole moments (NQMom) in fm**2, nuclear magnetic moments (NMagM)
  in nuclear magnetons)

  Atom         1           2           3           4           5           6           7           8           9          10
 IAtWgt=          16          14          12          12          12          12          12          12           1           1
 AtmWgt=  15.9949146  14.0030740  12.0000000  12.0000000  12.0000000  12.0000000  12.0000000  12.0000000   1.0078250   1.0078250
 NucSpn=           0           2           0           0           0           0           0           0           1           1
 AtZEff=  -0.0000000  -0.0000000  -0.0000000  -0.0000000  -0.0000000  -0.0000000  -0.0000000  -0.0000000  -0.0000000  -0.0000000
 NQMom=    0.0000000   2.0440000   0.0000000   0.0000000   0.0000000   0.0000000   0.0000000   0.0000000   0.0000000   0.0000000
 NMagM=    0.0000000   0.4037610   0.0000000   0.0000000   0.0000000   0.0000000   0.0000000   0.0000000   2.7928460   2.7928460
 AtZNuc=   8.0000000   7.0000000   6.0000000   6.0000000   6.0000000   6.0000000   6.0000000   6.0000000   1.0000000   1.0000000

  Atom        11          12          13          14          15          16          17          18          19          20
 IAtWgt=           1           1           1           1           1           1           1           1           1           1
 AtmWgt=   1.0078250   1.0078250   1.0078250   1.0078250   1.0078250   1.0078250   1.0078250   1.0078250   1.0078250   1.0078250
 NucSpn=           1           1           1           1           1           1           1           1           1           1
 AtZEff=  -0.0000000  -0.0000000  -0.0000000  -0.0000000  -0.0000000  -0.0000000  -0.0000000  -0.0000000  -0.0000000  -0.0000000
 NQMom=    0.0000000   0.0000000   0.0000000   0.0000000   0.0000000   0.0000000   0.0000000   0.0000000   0.0000000   0.0000000
 NMagM=    2.7928460   2.7928460   2.7928460   2.7928460   2.7928460   2.7928460   2.7928460   2.7928460   2.7928460   2.7928460
 AtZNuc=   1.0000000   1.0000000   1.0000000   1.0000000   1.0000000   1.0000000   1.0000000   1.0000000   1.0000000   1.0000000

  Atom        21          22          23          24          25          26          27          28          29          30
 IAtWgt=          12          12          12           1           1           1           1           1          12          12
 AtmWgt=  12.0000000  12.0000000  12.0000000   1.0078250   1.0078250   1.0078250   1.0078250   1.0078250  12.0000000  12.0000000
 NucSpn=           0           0           0           1           1           1           1           1           0           0
 AtZEff=  -0.0000000  -0.0000000  -0.0000000  -0.0000000  -0.0000000  -0.0000000  -0.0000000  -0.0000000  -0.0000000  -0.0000000
 NQMom=    0.0000000   0.0000000   0.0000000   0.0000000   0.0000000   0.0000000   0.0000000   0.0000000   0.0000000   0.0000000
 NMagM=    0.0000000   0.0000000   0.0000000   2.7928460   2.7928460   2.7928460   2.7928460   2.7928460   0.0000000   0.0000000
 AtZNuc=   6.0000000   6.0000000   6.0000000   1.0000000   1.0000000   1.0000000   1.0000000   1.0000000   6.0000000   6.0000000

  Atom        31          32          33          34          35          36
 IAtWgt=           1           1          16           1           1           1
 AtmWgt=   1.0078250   1.0078250  15.9949146   1.0078250   1.0078250   1.0078250
 NucSpn=           1           1           0           1           1           1
 AtZEff=  -0.0000000  -0.0000000  -0.0000000  -0.0000000  -0.0000000  -0.0000000
 NQMom=    0.0000000   0.0000000   0.0000000   0.0000000   0.0000000   0.0000000
 NMagM=    2.7928460   2.7928460   0.0000000   2.7928460   2.7928460   2.7928460
 AtZNuc=   1.0000000   1.0000000   8.0000000   1.0000000   1.0000000   1.0000000
 Leave Link  101 at Thu Jan  9 14:04:54 2025, MaxMem=  4026531840 cpu:              22.4 elap:               1.1
 (Enter /usr/local/intel/g16/l103.exe)

 GradGradGradGradGradGradGradGradGradGradGradGradGradGradGradGradGradGrad
 Berny optimization.
 Initialization pass.
                           ----------------------------
                           !    Initial Parameters    !
                           ! (Angstroms and Degrees)  !
 --------------------------                            --------------------------
 ! Name  Definition              Value          Derivative Info.                !
 --------------------------------------------------------------------------------
 ! R1    R(1,2)                  1.3253         estimate D2E/DX2                !
 ! R2    R(2,3)                  1.5108         estimate D2E/DX2                !
 ! R3    R(2,4)                  1.5084         estimate D2E/DX2                !
 ! R4    R(3,5)                  1.544          estimate D2E/DX2                !
 ! R5    R(3,6)                  1.5458         estimate D2E/DX2                !
 ! R6    R(3,21)                 1.5555         estimate D2E/DX2                !
 ! R7    R(4,7)                  1.5396         estimate D2E/DX2                !
 ! R8    R(4,8)                  1.5493         estimate D2E/DX2                !
 ! R9    R(4,23)                 1.5637         estimate D2E/DX2                !
 ! R10   R(5,9)                  1.0956         estimate D2E/DX2                !
 ! R11   R(5,10)                 1.0906         estimate D2E/DX2                !
 ! R12   R(5,11)                 1.0927         estimate D2E/DX2                !
 ! R13   R(6,12)                 1.0953         estimate D2E/DX2                !
 ! R14   R(6,13)                 1.0948         estimate D2E/DX2                !
 ! R15   R(6,14)                 1.0905         estimate D2E/DX2                !
 ! R16   R(7,15)                 1.0909         estimate D2E/DX2                !
 ! R17   R(7,16)                 1.0936         estimate D2E/DX2                !
 ! R18   R(7,17)                 1.0958         estimate D2E/DX2                !
 ! R19   R(8,18)                 1.0945         estimate D2E/DX2                !
 ! R20   R(8,19)                 1.0908         estimate D2E/DX2                !
 ! R21   R(8,20)                 1.0956         estimate D2E/DX2                !
 ! R22   R(21,24)                1.0963         estimate D2E/DX2                !
 ! R23   R(21,25)                1.096          estimate D2E/DX2                !
 ! R24   R(21,29)                1.5501         estimate D2E/DX2                !
 ! R25   R(22,23)                1.5451         estimate D2E/DX2                !
 ! R26   R(22,26)                1.0984         estimate D2E/DX2                !
 ! R27   R(22,30)                1.5351         estimate D2E/DX2                !
 ! R28   R(22,33)                1.4653         estimate D2E/DX2                !
 ! R29   R(23,27)                1.0958         estimate D2E/DX2                !
 ! R30   R(23,28)                1.099          estimate D2E/DX2                !
 ! R31   R(29,30)                1.5392         estimate D2E/DX2                !
 ! R32   R(29,31)                1.0957         estimate D2E/DX2                !
 ! R33   R(29,32)                1.0952         estimate D2E/DX2                !
 ! R34   R(30,34)                1.0964         estimate D2E/DX2                !
 ! R35   R(30,35)                1.0965         estimate D2E/DX2                !
 ! R36   R(33,36)                0.9744         estimate D2E/DX2                !
 ! A1    A(1,2,3)              116.685          estimate D2E/DX2                !
 ! A2    A(1,2,4)              113.365          estimate D2E/DX2                !
 ! A3    A(3,2,4)              127.6895         estimate D2E/DX2                !
 ! A4    A(2,3,5)              107.5412         estimate D2E/DX2                !
 ! A5    A(2,3,6)              111.31           estimate D2E/DX2                !
 ! A6    A(2,3,21)             110.0251         estimate D2E/DX2                !
 ! A7    A(5,3,6)              107.402          estimate D2E/DX2                !
 ! A8    A(5,3,21)             109.1261         estimate D2E/DX2                !
 ! A9    A(6,3,21)             111.3053         estimate D2E/DX2                !
 ! A10   A(2,4,7)              113.3551         estimate D2E/DX2                !
 ! A11   A(2,4,8)              105.9139         estimate D2E/DX2                !
 ! A12   A(2,4,23)             110.7667         estimate D2E/DX2                !
 ! A13   A(7,4,8)              107.1925         estimate D2E/DX2                !
 ! A14   A(7,4,23)             111.8903         estimate D2E/DX2                !
 ! A15   A(8,4,23)             107.2891         estimate D2E/DX2                !
 ! A16   A(3,5,9)              108.2943         estimate D2E/DX2                !
 ! A17   A(3,5,10)             112.125          estimate D2E/DX2                !
 ! A18   A(3,5,11)             110.9095         estimate D2E/DX2                !
 ! A19   A(9,5,10)             108.9656         estimate D2E/DX2                !
 ! A20   A(9,5,11)             108.9964         estimate D2E/DX2                !
 ! A21   A(10,5,11)            107.4955         estimate D2E/DX2                !
 ! A22   A(3,6,12)             108.8453         estimate D2E/DX2                !
 ! A23   A(3,6,13)             110.1677         estimate D2E/DX2                !
 ! A24   A(3,6,14)             113.3872         estimate D2E/DX2                !
 ! A25   A(12,6,13)            108.1455         estimate D2E/DX2                !
 ! A26   A(12,6,14)            107.3995         estimate D2E/DX2                !
 ! A27   A(13,6,14)            108.7359         estimate D2E/DX2                !
 ! A28   A(4,7,15)             114.273          estimate D2E/DX2                !
 ! A29   A(4,7,16)             110.5761         estimate D2E/DX2                !
 ! A30   A(4,7,17)             108.0349         estimate D2E/DX2                !
 ! A31   A(15,7,16)            108.4654         estimate D2E/DX2                !
 ! A32   A(15,7,17)            107.357          estimate D2E/DX2                !
 ! A33   A(16,7,17)            107.9092         estimate D2E/DX2                !
 ! A34   A(4,8,18)             110.2083         estimate D2E/DX2                !
 ! A35   A(4,8,19)             110.8976         estimate D2E/DX2                !
 ! A36   A(4,8,20)             109.5443         estimate D2E/DX2                !
 ! A37   A(18,8,19)            108.1629         estimate D2E/DX2                !
 ! A38   A(18,8,20)            108.7562         estimate D2E/DX2                !
 ! A39   A(19,8,20)            109.2276         estimate D2E/DX2                !
 ! A40   A(3,21,24)            106.7711         estimate D2E/DX2                !
 ! A41   A(3,21,25)            109.8779         estimate D2E/DX2                !
 ! A42   A(3,21,29)            113.094          estimate D2E/DX2                !
 ! A43   A(24,21,25)           105.6354         estimate D2E/DX2                !
 ! A44   A(24,21,29)           110.7123         estimate D2E/DX2                !
 ! A45   A(25,21,29)           110.4273         estimate D2E/DX2                !
 ! A46   A(23,22,26)           109.4713         estimate D2E/DX2                !
 ! A47   A(23,22,30)           115.9286         estimate D2E/DX2                !
 ! A48   A(23,22,33)           109.8609         estimate D2E/DX2                !
 ! A49   A(26,22,30)           109.7297         estimate D2E/DX2                !
 ! A50   A(26,22,33)           107.879          estimate D2E/DX2                !
 ! A51   A(30,22,33)           103.5854         estimate D2E/DX2                !
 ! A52   A(4,23,22)            118.7651         estimate D2E/DX2                !
 ! A53   A(4,23,27)            108.17           estimate D2E/DX2                !
 ! A54   A(4,23,28)            105.5079         estimate D2E/DX2                !
 ! A55   A(22,23,27)           110.3284         estimate D2E/DX2                !
 ! A56   A(22,23,28)           106.9351         estimate D2E/DX2                !
 ! A57   A(27,23,28)           106.372          estimate D2E/DX2                !
 ! A58   A(21,29,30)           114.602          estimate D2E/DX2                !
 ! A59   A(21,29,31)           109.329          estimate D2E/DX2                !
 ! A60   A(21,29,32)           109.9406         estimate D2E/DX2                !
 ! A61   A(30,29,31)           108.758          estimate D2E/DX2                !
 ! A62   A(30,29,32)           107.9588         estimate D2E/DX2                !
 ! A63   A(31,29,32)           105.8829         estimate D2E/DX2                !
 ! A64   A(22,30,29)           115.7349         estimate D2E/DX2                !
 ! A65   A(22,30,34)           106.8793         estimate D2E/DX2                !
 ! A66   A(22,30,35)           107.5931         estimate D2E/DX2                !
 ! A67   A(29,30,34)           109.1111         estimate D2E/DX2                !
 ! A68   A(29,30,35)           110.3226         estimate D2E/DX2                !
 ! A69   A(34,30,35)           106.7927         estimate D2E/DX2                !
 ! A70   A(22,33,36)           110.7038         estimate D2E/DX2                !
 ! D1    D(1,2,3,5)            -11.4377         estimate D2E/DX2                !
 ! D2    D(1,2,3,6)           -128.8235         estimate D2E/DX2                !
 ! D3    D(1,2,3,21)           107.3092         estimate D2E/DX2                !
 ! D4    D(4,2,3,5)           -173.1009         estimate D2E/DX2                !
 ! D5    D(4,2,3,6)             69.5133         estimate D2E/DX2                !
 ! D6    D(4,2,3,21)           -54.3539         estimate D2E/DX2                !
 ! D7    D(1,2,4,7)            164.33           estimate D2E/DX2                !
 ! D8    D(1,2,4,8)             47.0775         estimate D2E/DX2                !
 ! D9    D(1,2,4,23)           -68.9388         estimate D2E/DX2                !
 ! D10   D(3,2,4,7)            -33.5006         estimate D2E/DX2                !
 ! D11   D(3,2,4,8)           -150.7531         estimate D2E/DX2                !
 ! D12   D(3,2,4,23)            93.2306         estimate D2E/DX2                !
 ! D13   D(2,3,5,9)           -177.9208         estimate D2E/DX2                !
 ! D14   D(2,3,5,10)            61.8191         estimate D2E/DX2                !
 ! D15   D(2,3,5,11)           -58.3621         estimate D2E/DX2                !
 ! D16   D(6,3,5,9)            -58.021          estimate D2E/DX2                !
 ! D17   D(6,3,5,10)          -178.2811         estimate D2E/DX2                !
 ! D18   D(6,3,5,11)            61.5378         estimate D2E/DX2                !
 ! D19   D(21,3,5,9)            62.7563         estimate D2E/DX2                !
 ! D20   D(21,3,5,10)          -57.5038         estimate D2E/DX2                !
 ! D21   D(21,3,5,11)         -177.6849         estimate D2E/DX2                !
 ! D22   D(2,3,6,12)           167.6779         estimate D2E/DX2                !
 ! D23   D(2,3,6,13)            49.2584         estimate D2E/DX2                !
 ! D24   D(2,3,6,14)           -72.8592         estimate D2E/DX2                !
 ! D25   D(5,3,6,12)            50.2077         estimate D2E/DX2                !
 ! D26   D(5,3,6,13)           -68.2119         estimate D2E/DX2                !
 ! D27   D(5,3,6,14)           169.6706         estimate D2E/DX2                !
 ! D28   D(21,3,6,12)          -69.1843         estimate D2E/DX2                !
 ! D29   D(21,3,6,13)          172.3962         estimate D2E/DX2                !
 ! D30   D(21,3,6,14)           50.2786         estimate D2E/DX2                !
 ! D31   D(2,3,21,24)         -170.2991         estimate D2E/DX2                !
 ! D32   D(2,3,21,25)           75.6038         estimate D2E/DX2                !
 ! D33   D(2,3,21,29)          -48.2886         estimate D2E/DX2                !
 ! D34   D(5,3,21,24)          -52.5292         estimate D2E/DX2                !
 ! D35   D(5,3,21,25)         -166.6263         estimate D2E/DX2                !
 ! D36   D(5,3,21,29)           69.4812         estimate D2E/DX2                !
 ! D37   D(6,3,21,24)           65.8309         estimate D2E/DX2                !
 ! D38   D(6,3,21,25)          -48.2661         estimate D2E/DX2                !
 ! D39   D(6,3,21,29)         -172.1586         estimate D2E/DX2                !
 ! D40   D(2,4,7,15)            59.1239         estimate D2E/DX2                !
 ! D41   D(2,4,7,16)           -63.5876         estimate D2E/DX2                !
 ! D42   D(2,4,7,17)           178.5296         estimate D2E/DX2                !
 ! D43   D(8,4,7,15)           175.6265         estimate D2E/DX2                !
 ! D44   D(8,4,7,16)            52.915          estimate D2E/DX2                !
 ! D45   D(8,4,7,17)           -64.9677         estimate D2E/DX2                !
 ! D46   D(23,4,7,15)          -67.013          estimate D2E/DX2                !
 ! D47   D(23,4,7,16)          170.2754         estimate D2E/DX2                !
 ! D48   D(23,4,7,17)           52.3927         estimate D2E/DX2                !
 ! D49   D(2,4,8,18)            53.7271         estimate D2E/DX2                !
 ! D50   D(2,4,8,19)           -66.0151         estimate D2E/DX2                !
 ! D51   D(2,4,8,20)           173.3475         estimate D2E/DX2                !
 ! D52   D(7,4,8,18)           -67.5869         estimate D2E/DX2                !
 ! D53   D(7,4,8,19)           172.6709         estimate D2E/DX2                !
 ! D54   D(7,4,8,20)            52.0335         estimate D2E/DX2                !
 ! D55   D(23,4,8,18)          172.079          estimate D2E/DX2                !
 ! D56   D(23,4,8,19)           52.3368         estimate D2E/DX2                !
 ! D57   D(23,4,8,20)          -68.3006         estimate D2E/DX2                !
 ! D58   D(2,4,23,22)          -82.3339         estimate D2E/DX2                !
 ! D59   D(2,4,23,27)           44.341          estimate D2E/DX2                !
 ! D60   D(2,4,23,28)          157.8531         estimate D2E/DX2                !
 ! D61   D(7,4,23,22)           45.2036         estimate D2E/DX2                !
 ! D62   D(7,4,23,27)          171.8784         estimate D2E/DX2                !
 ! D63   D(7,4,23,28)          -74.6095         estimate D2E/DX2                !
 ! D64   D(8,4,23,22)          162.5061         estimate D2E/DX2                !
 ! D65   D(8,4,23,27)          -70.8191         estimate D2E/DX2                !
 ! D66   D(8,4,23,28)           42.693          estimate D2E/DX2                !
 ! D67   D(3,21,29,30)         120.0268         estimate D2E/DX2                !
 ! D68   D(3,21,29,31)          -2.345          estimate D2E/DX2                !
 ! D69   D(3,21,29,32)        -118.1795         estimate D2E/DX2                !
 ! D70   D(24,21,29,30)       -120.1984         estimate D2E/DX2                !
 ! D71   D(24,21,29,31)        117.4299         estimate D2E/DX2                !
 ! D72   D(24,21,29,32)          1.5954         estimate D2E/DX2                !
 ! D73   D(25,21,29,30)         -3.5639         estimate D2E/DX2                !
 ! D74   D(25,21,29,31)       -125.9357         estimate D2E/DX2                !
 ! D75   D(25,21,29,32)        118.2299         estimate D2E/DX2                !
 ! D76   D(26,22,23,4)         -31.0642         estimate D2E/DX2                !
 ! D77   D(26,22,23,27)       -156.7076         estimate D2E/DX2                !
 ! D78   D(26,22,23,28)         88.0132         estimate D2E/DX2                !
 ! D79   D(30,22,23,4)          93.6883         estimate D2E/DX2                !
 ! D80   D(30,22,23,27)        -31.9552         estimate D2E/DX2                !
 ! D81   D(30,22,23,28)       -147.2343         estimate D2E/DX2                !
 ! D82   D(33,22,23,4)        -149.3544         estimate D2E/DX2                !
 ! D83   D(33,22,23,27)         85.0022         estimate D2E/DX2                !
 ! D84   D(33,22,23,28)        -30.277          estimate D2E/DX2                !
 ! D85   D(23,22,30,29)        -47.2723         estimate D2E/DX2                !
 ! D86   D(23,22,30,34)         74.468          estimate D2E/DX2                !
 ! D87   D(23,22,30,35)       -171.1421         estimate D2E/DX2                !
 ! D88   D(26,22,30,29)         77.3472         estimate D2E/DX2                !
 ! D89   D(26,22,30,34)       -160.9125         estimate D2E/DX2                !
 ! D90   D(26,22,30,35)        -46.5226         estimate D2E/DX2                !
 ! D91   D(33,22,30,29)       -167.6786         estimate D2E/DX2                !
 ! D92   D(33,22,30,34)        -45.9383         estimate D2E/DX2                !
 ! D93   D(33,22,30,35)         68.4516         estimate D2E/DX2                !
 ! D94   D(23,22,33,36)         62.6096         estimate D2E/DX2                !
 ! D95   D(26,22,33,36)        -56.6603         estimate D2E/DX2                !
 ! D96   D(30,22,33,36)       -172.948          estimate D2E/DX2                !
 ! D97   D(21,29,30,22)        -50.3972         estimate D2E/DX2                !
 ! D98   D(21,29,30,34)       -170.9377         estimate D2E/DX2                !
 ! D99   D(21,29,30,35)         72.0369         estimate D2E/DX2                !
 ! D100  D(31,29,30,22)         72.2836         estimate D2E/DX2                !
 ! D101  D(31,29,30,34)        -48.2568         estimate D2E/DX2                !
 ! D102  D(31,29,30,35)       -165.2823         estimate D2E/DX2                !
 ! D103  D(32,29,30,22)       -173.2661         estimate D2E/DX2                !
 ! D104  D(32,29,30,34)         66.1935         estimate D2E/DX2                !
 ! D105  D(32,29,30,35)        -50.832          estimate D2E/DX2                !
 --------------------------------------------------------------------------------
 Trust Radius=3.00D-01 FncErr=1.00D-07 GrdErr=1.00D-06 EigMax=2.50D+02 EigMin=1.00D-04
 Number of steps in this run=    216 maximum allowed number of steps=    216.
 GradGradGradGradGradGradGradGradGradGradGradGradGradGradGradGradGradGrad

 Leave Link  103 at Thu Jan  9 14:04:54 2025, MaxMem=  4026531840 cpu:               0.3 elap:               0.1
 (Enter /usr/local/intel/g16/l202.exe)
                          Input orientation:                          
 ---------------------------------------------------------------------
 Center     Atomic      Atomic             Coordinates (Angstroms)
 Number     Number       Type             X           Y           Z
 ---------------------------------------------------------------------
      1          8           0       -1.183221    0.693108   -1.764842
      2          7           0       -0.982813    0.605929   -0.457732
      3          6           0       -1.709484   -0.502338    0.267658
      4          6           0        0.217246    1.386859    0.016869
      5          6           0       -2.752433   -1.090746   -0.706943
      6          6           0       -2.477510    0.038879    1.495196
      7          6           0        0.238292    1.607489    1.540468
      8          6           0        0.105329    2.782479   -0.646444
      9          1           0       -3.312748   -1.871501   -0.180784
     10          1           0       -2.287711   -1.524184   -1.593296
     11          1           0       -3.448925   -0.319588   -1.045007
     12          1           0       -3.158124   -0.738946    1.857856
     13          1           0       -3.076108    0.910613    1.211667
     14          1           0       -1.826804    0.315783    2.325360
     15          1           0        0.239573    0.687570    2.126838
     16          1           0       -0.615122    2.215978    1.852535
     17          1           0        1.153026    2.156234    1.791188
     18          1           0       -0.872151    3.225719   -0.431994
     19          1           0        0.215006    2.708586   -1.729215
     20          1           0        0.885579    3.440897   -0.248850
     21          6           0       -0.706432   -1.618981    0.675829
     22          6           0        2.131379   -0.463131    0.283916
     23          6           0        1.542082    0.733500   -0.495935
     24          1           0       -1.303965   -2.465268    1.034591
     25          1           0       -0.113012   -1.290374    1.536681
     26          1           0        1.882739   -0.364072    1.349236
     27          1           0        1.407432    0.470962   -1.551288
     28          1           0        2.294142    1.534461   -0.469480
     29          6           0        0.221874   -2.056665   -0.485784
     30          6           0        1.723980   -1.856262   -0.215973
     31          1           0       -0.049470   -1.506679   -1.393816
     32          1           0        0.058386   -3.114822   -0.716156
     33          8           0        3.591577   -0.466821    0.161206
     34          1           0        2.282366   -2.038135   -1.141790
     35          1           0        2.080154   -2.588980    0.517937
     36          1           0        3.972635    0.337451    0.557871
 ---------------------------------------------------------------------
                    Distance matrix (angstroms):
                    1          2          3          4          5
     1  O    0.000000
     2  N    1.325255   0.000000
     3  C    2.416009   1.510794   0.000000
     4  C    2.370041   1.508390   2.710027   0.000000
     5  C    2.600714   2.464217   1.543960   3.934644   0.000000
     6  C    3.568059   2.523805   1.545843   3.356220   2.490191
     7  C    3.712394   2.546964   3.140899   1.539635   4.612566
     8  C    2.697526   2.440704   3.862532   1.549279   4.813765
     9  H    3.690711   3.412178   2.155496   4.807997   1.095616
    10  H    2.483085   2.744020   2.200378   4.164326   1.090622
    11  H    2.584014   2.698737   2.186811   4.180951   1.092736
    12  H    4.367489   3.450017   2.164087   4.393336   2.620409
    13  H    3.534110   2.694737   2.180652   3.535609   2.791284
    14  H    4.157683   2.922688   2.217481   3.264119   3.468425
    15  H    4.143615   2.860226   2.944699   2.222942   4.488298
    16  H    3.965764   2.839857   3.331472   2.179437   4.696110
    17  H    4.499349   3.467405   4.193222   2.148448   5.660048
    18  H    2.878779   2.622252   3.884462   2.183957   4.716241
    19  H    2.453255   2.733607   4.242782   2.189926   4.928048
    20  H    3.758791   3.401700   4.748709   2.176315   5.829303
    21  C    3.395579   2.512284   1.555509   3.212862   2.525314
    22  C    4.064587   3.375074   3.841098   2.675385   5.022681
    23  C    3.006498   2.528404   3.561327   1.563661   4.670681
    24  H    4.222173   3.429638   2.146096   4.264824   2.649587
    25  H    3.997449   2.886209   2.186354   3.096203   3.469905
    26  H    4.496134   3.523836   3.754064   2.759498   5.122572
    27  H    2.608915   2.631986   3.737786   2.171296   4.522867
    28  H    3.804982   3.405986   4.552026   2.138181   5.693507
    29  C    3.342384   2.922578   2.591091   3.480020   3.135030
    30  C    4.165345   3.667092   3.722322   3.583615   4.567859
    31  H    2.502422   2.492086   2.554377   3.230129   2.819717
    32  H    4.140249   3.872321   3.304289   4.563737   3.463766
    33  O    5.277669   4.739084   5.302249   3.852671   6.433462
    34  H    4.456251   4.256807   4.503341   4.163868   5.141579
    35  H    5.160697   4.532233   4.333367   4.419139   5.205664
    36  H    5.666069   5.065570   5.751169   3.936609   6.990425
                    6          7          8          9         10
     6  C    0.000000
     7  C    3.136585   0.000000
     8  C    4.334169   2.486135   0.000000
     9  H    2.675086   5.260795   5.793066   0.000000
    10  H    3.466695   5.099857   5.017023   1.779472   0.000000
    11  H    2.743133   4.898354   4.734384   1.781533   1.760707
    12  H    1.095340   4.140306   5.414986   2.337230   3.644814
    13  H    1.094819   3.402792   4.132554   3.120108   3.797055
    14  H    1.090535   2.559137   4.318489   3.643213   4.353594
    15  H    2.863968   1.090909   3.478183   4.949035   5.011828
    16  H    2.887203   1.093600   2.661742   5.302740   5.353514
    17  H    4.213264   1.095774   2.726151   6.328859   6.069504
    18  H    4.055513   2.782509   1.094494   5.656967   5.090581
    19  H    4.977329   3.450186   1.090817   5.984971   4.919188
    20  H    5.091737   2.642352   1.095621   6.771422   6.043950
    21  C    2.560582   3.471342   4.666927   2.755074   2.767374
    22  C    4.791771   3.074113   3.937567   5.642515   4.917125
    23  C    4.539187   2.571121   2.507036   5.518580   4.579154
    24  H    2.803590   4.384269   5.687780   2.421757   2.959592
    25  H    2.712837   2.919082   4.626212   3.677731   3.818473
    26  H    4.381261   2.574457   4.128282   5.621956   5.234215
    27  H    4.955859   3.495359   2.803092   5.444769   4.199578
    28  H    5.372651   2.876064   2.525820   6.566669   5.622424
    29  C    3.949970   4.187122   4.843213   3.552585   2.794304
    30  C    4.916521   4.158116   4.931861   5.036874   4.254522
    31  H    4.078053   4.288458   4.356536   3.500504   2.247181
    32  H    4.611581   5.236883   5.897900   3.632770   2.967099
    33  O    6.234507   4.177277   4.833650   7.054062   6.225939
    34  H    5.824440   4.966218   5.312549   5.679489   4.620996
    35  H    5.350979   4.695570   5.840230   5.485105   4.966824
    36  H    6.524729   4.064949   4.731236   7.648653   6.876419
                   11         12         13         14         15
    11  H    0.000000
    12  H    2.947378   0.000000
    13  H    2.597107   1.773508   0.000000
    14  H    3.793988   1.761654   1.776202   0.000000
    15  H    4.967895   3.694813   3.446887   2.108922   0.000000
    16  H    4.780720   3.898521   2.858521   2.302711   1.772506
    17  H    5.945725   5.193508   4.446683   3.542878   1.761826
    18  H    4.425466   5.117387   3.594268   4.120933   3.771704
    19  H    4.802330   6.010870   4.765808   5.131673   4.353648
    20  H    5.793362   6.185534   4.922440   4.873389   3.693511
    21  C    3.488691   2.860497   3.507326   2.778398   2.884533
    22  C    5.738156   5.525595   5.464963   4.521218   2.880869
    23  C    5.130363   5.458971   4.926962   4.414022   2.928750
    24  H    3.678250   2.663805   3.816860   3.110256   3.676398
    25  H    4.328493   3.111259   3.705390   2.477668   2.094007
    26  H    5.844743   5.080308   5.121905   3.895604   2.100145
    27  H    4.946261   5.824984   5.284822   5.051016   3.865155
    28  H    6.062305   6.349179   5.661716   5.126256   3.417506
    29  C    4.099382   4.318960   4.750028   4.210478   3.789054
    30  C    5.459635   5.420710   5.721416   4.876907   3.763417
    31  H    3.617616   4.563608   4.668231   4.506945   4.158519
    32  H    4.496966   4.755656   5.453960   4.957198   4.751171
    33  O    7.144599   6.964994   6.889036   5.886840   4.053672
    34  H    5.984185   6.347023   6.553405   5.869185   4.720847
    35  H    6.177673   5.714680   6.270203   5.193144   4.088041
    36  H    7.621054   7.327777   7.102165   6.062836   4.064479
                   16         17         18         19         20
    16  H    0.000000
    17  H    1.770220   0.000000
    18  H    2.510919   3.191814   0.000000
    19  H    3.709543   3.684862   1.769779   0.000000
    20  H    2.858032   2.425622   1.780297   1.782534   0.000000
    21  C    4.012466   4.353603   4.972510   5.035983   5.384412
    22  C    4.145052   3.176494   4.810544   4.217223   4.132468
    23  C    3.516615   2.721483   3.470413   2.680126   2.796792
    24  H    4.801833   5.288433   5.892764   6.059262   6.428383
    25  H    3.556175   3.680589   4.984683   5.173524   5.154632
    26  H    3.626193   2.660779   4.863003   4.658264   4.245703
    27  H    4.326871   3.751934   3.746732   2.541751   3.284690
    28  H    3.784182   2.607560   3.589870   2.699687   2.380594
    29  C    4.942042   4.878541   5.394753   4.924813   5.542547
    30  C    5.131595   4.522699   5.710787   5.040312   5.363198
    31  H    4.971613   5.000718   4.898724   4.236850   5.163698
    32  H    5.955604   5.938774   6.414757   5.912943   6.624204
    33  O    5.268237   3.934945   5.823367   5.005810   4.770831
    34  H    5.954737   5.241231   6.177617   5.210605   5.724347
    35  H    5.668623   4.999779   6.590083   6.049188   6.194706
    36  H    5.123723   3.574806   5.726594   4.997281   4.451077
                   21         22         23         24         25
    21  C    0.000000
    22  C    3.089135   0.000000
    23  C    3.458759   1.545110   0.000000
    24  H    1.096338   4.046437   4.546934   0.000000
    25  H    1.095991   2.700193   3.311636   1.746665   0.000000
    26  H    2.955009   1.098427   2.173791   3.830027   2.208210
    27  H    3.714342   2.182797   1.095822   4.760241   3.866472
    28  H    4.501041   2.141138   1.099014   5.586272   4.218858
    29  C    1.550053   2.603459   3.086758   2.192414   2.188542
    30  C    2.599715   1.535147   2.611194   3.332154   2.601262
    31  H    2.174314   2.942767   2.890957   2.896517   2.939156
    32  H    2.181767   3.511255   4.130307   2.311501   2.904008
    33  O    4.479419   1.465350   2.464353   5.359377   4.036601
    34  H    3.523115   2.129806   2.940597   4.216734   3.670312
    35  H    2.954808   2.139305   3.515157   3.425565   2.744849
    36  H    5.072988   2.026378   2.678610   5.993747   4.505596
                   26         27         28         29         30
    26  H    0.000000
    27  H    3.055526   0.000000
    28  H    2.661091   1.757155   0.000000
    29  C    2.998440   2.988268   4.146173   0.000000
    30  C    2.168344   2.701711   3.447659   1.539247   0.000000
    31  H    3.544477   2.461387   3.949107   1.095735   2.157463
    32  H    3.893679   3.921125   5.164812   1.095215   2.146709
    33  O    2.083771   2.929601   2.467029   3.781679   2.358120
    34  H    3.027771   2.688636   3.635324   2.162479   1.096362
    35  H    2.383327   3.754663   4.245415   2.178077   1.096522
    36  H    2.342234   3.323649   2.303394   4.570472   3.235376
                   31         32         33         34         35
    31  H    0.000000
    32  H    1.748422   0.000000
    33  O    4.093485   4.501679   0.000000
    34  H    2.404875   2.507291   2.425048   0.000000
    35  H    3.059652   2.426323   2.629680   1.760402   0.000000
    36  H    4.836034   5.372400   0.974373   3.374799   3.485266
                   36
    36  H    0.000000
 Stoichiometry    C11H22NO2(2)
 Framework group  C1[X(C11H22NO2)]
 Deg. of freedom   102
 Full point group                 C1      NOp   1
 Largest Abelian subgroup         C1      NOp   1
 Largest concise Abelian subgroup C1      NOp   1
                         Standard orientation:                         
 ---------------------------------------------------------------------
 Center     Atomic      Atomic             Coordinates (Angstroms)
 Number     Number       Type             X           Y           Z
 ---------------------------------------------------------------------
      1          8           0       -1.183221    0.693108   -1.764842
      2          7           0       -0.982813    0.605929   -0.457732
      3          6           0       -1.709484   -0.502338    0.267658
      4          6           0        0.217246    1.386859    0.016869
      5          6           0       -2.752433   -1.090746   -0.706943
      6          6           0       -2.477510    0.038879    1.495196
      7          6           0        0.238292    1.607489    1.540468
      8          6           0        0.105329    2.782479   -0.646444
      9          1           0       -3.312748   -1.871501   -0.180784
     10          1           0       -2.287711   -1.524184   -1.593296
     11          1           0       -3.448925   -0.319588   -1.045007
     12          1           0       -3.158124   -0.738946    1.857856
     13          1           0       -3.076108    0.910613    1.211667
     14          1           0       -1.826804    0.315783    2.325360
     15          1           0        0.239573    0.687570    2.126838
     16          1           0       -0.615122    2.215978    1.852535
     17          1           0        1.153026    2.156234    1.791188
     18          1           0       -0.872151    3.225719   -0.431994
     19          1           0        0.215006    2.708586   -1.729215
     20          1           0        0.885579    3.440897   -0.248850
     21          6           0       -0.706432   -1.618981    0.675829
     22          6           0        2.131379   -0.463131    0.283916
     23          6           0        1.542082    0.733500   -0.495935
     24          1           0       -1.303965   -2.465268    1.034591
     25          1           0       -0.113012   -1.290374    1.536681
     26          1           0        1.882739   -0.364072    1.349236
     27          1           0        1.407432    0.470962   -1.551288
     28          1           0        2.294142    1.534461   -0.469480
     29          6           0        0.221874   -2.056665   -0.485784
     30          6           0        1.723980   -1.856262   -0.215973
     31          1           0       -0.049470   -1.506679   -1.393816
     32          1           0        0.058386   -3.114822   -0.716156
     33          8           0        3.591577   -0.466821    0.161206
     34          1           0        2.282366   -2.038135   -1.141790
     35          1           0        2.080154   -2.588980    0.517937
     36          1           0        3.972635    0.337451    0.557871
 ---------------------------------------------------------------------
 Rotational constants (GHZ):           0.8901874           0.6049293           0.4787045
 Leave Link  202 at Thu Jan  9 14:04:54 2025, MaxMem=  4026531840 cpu:               0.1 elap:               0.0
 (Enter /usr/local/intel/g16/l301.exe)
 Standard basis: def2TZVP (5D, 7F)
 Ernie: Thresh=  0.10000D-02 Tol=  0.10000D-05 Strict=F.
 There are   636 symmetry adapted cartesian basis functions of A   symmetry.
 There are   566 symmetry adapted basis functions of A   symmetry.
   566 basis functions,   890 primitive gaussians,   636 cartesian basis functions
    56 alpha electrons       55 beta electrons
       nuclear repulsion energy      1057.3940398338 Hartrees.
 IExCor= 4336 DFT=T Ex+Corr=M062X ExCW=0 ScaHFX=  0.540000
 ScaDFX=  1.000000  1.000000  1.000000  1.000000 ScalE2=  1.000000  1.000000
 IRadAn=      5 IRanWt=     -1 IRanGd=            0 ICorTp=0 IEmpDi=  4
 NAtoms=   36 NActive=   36 NUniq=   36 SFac= 1.00D+00 NAtFMM=   60 NAOKFM=F Big=F
 Integral buffers will be    131072 words long.
 Raffenetti 2 integral format.
 Two-electron integral symmetry is turned on.
 Leave Link  301 at Thu Jan  9 14:04:54 2025, MaxMem=  4026531840 cpu:               1.2 elap:               0.1
 (Enter /usr/local/intel/g16/l302.exe)
 NPDir=0 NMtPBC=     1 NCelOv=     1 NCel=       1 NClECP=     1 NCelD=      1
         NCelK=      1 NCelE2=     1 NClLst=     1 CellRange=     0.0.
 One-electron integrals computed using PRISM.
 One-electron integral symmetry used in STVInt
   1 Symmetry operations used in ECPInt.
 ECPInt:  NShTT=   29403 NPrTT=   85452 LenC2=   28250 LenP2D=   62631.
 LDataN:  DoStor=T MaxTD1= 6 Len=  172
 NBasis=   566 RedAO= T EigKep=  3.67D-05  NBF=   566
 NBsUse=   566 1.00D-06 EigRej= -1.00D+00 NBFU=   566
 Precomputing XC quadrature grid using
 IXCGrd= 4 IRadAn=           5 IRanWt=          -1 IRanGd=           0 AccXCQ= 0.00D+00.
 Generated NRdTot=       0 NPtTot=           0 NUsed=           0 NTot=          32
 NSgBfM=   632   631   632   632   632 MxSgAt=    36 MxSgA2=    36.
 Leave Link  302 at Thu Jan  9 14:04:56 2025, MaxMem=  4026531840 cpu:              21.4 elap:               1.1
 (Enter /usr/local/intel/g16/l303.exe)
 DipDrv:  MaxL=1.
 Leave Link  303 at Thu Jan  9 14:04:56 2025, MaxMem=  4026531840 cpu:               3.1 elap:               0.2
 (Enter /usr/local/intel/g16/l401.exe)
 ExpMin= 9.52D-02 ExpMax= 2.70D+04 ExpMxC= 9.22D+02 IAcc=3 IRadAn=         5 AccDes= 0.00D+00
 Harris functional with IExCor= 1009 and IRadAn=       5 diagonalized for initial guess.
 HarFok:  IExCor= 1009 AccDes= 0.00D+00 IRadAn=         5 IDoV= 1 UseB2=F ITyADJ=14
 ICtDFT=  3500011 ScaDFX=  1.000000  1.000000  1.000000  1.000000
 FoFCou: FMM=F IPFlag=           0 FMFlag=      100000 FMFlg1=           0
         NFxFlg=           0 DoJE=T BraDBF=F KetDBF=T FulRan=T
         wScrn=  0.000000 ICntrl=       500 IOpCl=  0 I1Cent=   200000004 NGrid=           0
         NMat0=    1 NMatS0=      1 NMatT0=    0 NMatD0=    1 NMtDS0=    0 NMtDT0=    0
 Petite list used in FoFCou.
 Harris En= -637.269823968916    
 JPrj=0 DoOrth=F DoCkMO=F.
 Initial guess <Sx>= 0.0000 <Sy>= 0.0000 <Sz>= 0.5000 <S**2>= 0.7500 S= 0.5000
 Leave Link  401 at Thu Jan  9 14:05:00 2025, MaxMem=  4026531840 cpu:              76.0 elap:               3.8
 (Enter /usr/local/intel/g16/l502.exe)
 Integral symmetry usage will be decided dynamically.
 UHF open shell SCF:
 Using DIIS extrapolation, IDIIS=  1040.
 NGot=  4026531840 LenX=  4025703394 LenY=  4025298262
 Requested convergence on RMS density matrix=1.00D-08 within 128 cycles.
 Requested convergence on MAX density matrix=1.00D-06.
 Requested convergence on             energy=1.00D-06.
 No special actions if energy rises.
 Fock matrices will be formed incrementally for  20 cycles.
 Integral accuracy reduced to 1.0D-05 until final iterations.

 Cycle   1  Pass 0  IDiag  1:
 FoFJK:  IHMeth= 1 ICntrl=       0 DoSepK=F KAlg= 0 I1Cent=           0 FoldK=F
 IRaf= 920000000 NMat=       1 IRICut=       1 DoRegI=T DoRafI=F ISym2E= 0 IDoP0=0 IntGTp=1.
 FoFCou: FMM=F IPFlag=           0 FMFlag=      100000 FMFlg1=           0
         NFxFlg=           0 DoJE=F BraDBF=F KetDBF=F FulRan=T
         wScrn=  0.000000 ICntrl=         0 IOpCl=  1 I1Cent=           0 NGrid=           0
         NMat0=    1 NMatS0=      1 NMatT0=    0 NMatD0=    1 NMtDS0=    0 NMtDT0=    0
 Symmetry not used in FoFCou.
 E= -636.972323949205    
 DIIS: error= 2.19D-02 at cycle   1 NSaved=   1.
 NSaved= 1 IEnMin= 1 EnMin= -636.972323949205     IErMin= 1 ErrMin= 2.19D-02
 ErrMax= 2.19D-02  0.00D+00 EMaxC= 1.00D-01 BMatC= 2.50D+00 BMatP= 2.50D+00
 IDIUse=3 WtCom= 7.81D-01 WtEn= 2.19D-01
 Coeff-Com:  0.100D+01
 Coeff-En:   0.100D+01
 Coeff:      0.100D+01
 Gap=     0.386 Goal=   None    Shift=    0.000
 Gap=     0.217 Goal=   None    Shift=    0.000
 GapD=    0.217 DampG=1.000 DampE=0.500 DampFc=0.5000 IDamp=-1.
 Damping current iteration by 5.00D-01
 RMSDP=3.50D-03 MaxDP=4.09D-01              OVMax= 1.53D-01

 Cycle   2  Pass 0  IDiag  1:
 RMSU=  1.75D-03    CP:  1.00D+00
 E= -637.227727073438     Delta-E=       -0.255403124233 Rises=F Damp=T
 DIIS: error= 5.02D-03 at cycle   2 NSaved=   2.
 NSaved= 2 IEnMin= 2 EnMin= -637.227727073438     IErMin= 2 ErrMin= 5.02D-03
 ErrMax= 5.02D-03  0.00D+00 EMaxC= 1.00D-01 BMatC= 1.86D-01 BMatP= 2.50D+00
 IDIUse=3 WtCom= 9.50D-01 WtEn= 5.02D-02
 Coeff-Com: -0.355D-01 0.104D+01
 Coeff-En:   0.000D+00 0.100D+01
 Coeff:     -0.337D-01 0.103D+01
 Gap=     0.335 Goal=   None    Shift=    0.000
 Gap=     0.316 Goal=   None    Shift=    0.000
 RMSDP=9.73D-04 MaxDP=5.65D-02 DE=-2.55D-01 OVMax= 1.14D-01

 Cycle   3  Pass 0  IDiag  1:
 RMSU=  9.62D-04    CP:  9.88D-01  9.43D-01
 E= -637.470615230490     Delta-E=       -0.242888157051 Rises=F Damp=F
 DIIS: error= 6.66D-03 at cycle   3 NSaved=   3.
 NSaved= 3 IEnMin= 3 EnMin= -637.470615230490     IErMin= 2 ErrMin= 5.02D-03
 ErrMax= 6.66D-03  0.00D+00 EMaxC= 1.00D-01 BMatC= 1.07D-01 BMatP= 1.86D-01
 IDIUse=3 WtCom= 9.33D-01 WtEn= 6.66D-02
 Coeff-Com: -0.699D-01 0.458D+00 0.612D+00
 Coeff-En:   0.000D+00 0.000D+00 0.100D+01
 Coeff:     -0.652D-01 0.427D+00 0.638D+00
 Gap=     0.324 Goal=   None    Shift=    0.000
 Gap=     0.291 Goal=   None    Shift=    0.000
 RMSDP=3.54D-04 MaxDP=2.35D-02 DE=-2.43D-01 OVMax= 7.03D-02

 Cycle   4  Pass 0  IDiag  1:
 RMSU=  3.22D-04    CP:  9.92D-01  1.01D+00  9.17D-01
 E= -637.483411960148     Delta-E=       -0.012796729658 Rises=F Damp=F
 DIIS: error= 3.96D-03 at cycle   4 NSaved=   4.
 NSaved= 4 IEnMin= 4 EnMin= -637.483411960148     IErMin= 4 ErrMin= 3.96D-03
 ErrMax= 3.96D-03  0.00D+00 EMaxC= 1.00D-01 BMatC= 3.79D-02 BMatP= 1.07D-01
 IDIUse=3 WtCom= 9.60D-01 WtEn= 3.96D-02
 Coeff-Com: -0.247D-01 0.745D-01 0.392D+00 0.558D+00
 Coeff-En:   0.000D+00 0.000D+00 0.283D+00 0.717D+00
 Coeff:     -0.237D-01 0.716D-01 0.388D+00 0.564D+00
 Gap=     0.315 Goal=   None    Shift=    0.000
 Gap=     0.302 Goal=   None    Shift=    0.000
 RMSDP=1.62D-04 MaxDP=8.12D-03 DE=-1.28D-02 OVMax= 1.75D-02

 Cycle   5  Pass 0  IDiag  1:
 RMSU=  1.04D-04    CP:  9.89D-01  1.00D+00  9.42D-01  6.28D-01
 E= -637.490361194558     Delta-E=       -0.006949234410 Rises=F Damp=F
 DIIS: error= 3.60D-04 at cycle   5 NSaved=   5.
 NSaved= 5 IEnMin= 5 EnMin= -637.490361194558     IErMin= 5 ErrMin= 3.60D-04
 ErrMax= 3.60D-04  0.00D+00 EMaxC= 1.00D-01 BMatC= 6.40D-04 BMatP= 3.79D-02
 IDIUse=3 WtCom= 9.96D-01 WtEn= 3.60D-03
 Coeff-Com: -0.486D-02 0.638D-02 0.125D+00 0.207D+00 0.667D+00
 Coeff-En:   0.000D+00 0.000D+00 0.000D+00 0.000D+00 0.100D+01
 Coeff:     -0.484D-02 0.636D-02 0.125D+00 0.206D+00 0.668D+00
 Gap=     0.312 Goal=   None    Shift=    0.000
 Gap=     0.302 Goal=   None    Shift=    0.000
 RMSDP=4.23D-05 MaxDP=2.46D-03 DE=-6.95D-03 OVMax= 6.33D-03

 Cycle   6  Pass 0  IDiag  1:
 RMSU=  3.09D-05    CP:  9.88D-01  9.95D-01  9.61D-01  6.64D-01  9.08D-01
 E= -637.490515392973     Delta-E=       -0.000154198416 Rises=F Damp=F
 DIIS: error= 2.27D-04 at cycle   6 NSaved=   6.
 NSaved= 6 IEnMin= 6 EnMin= -637.490515392973     IErMin= 6 ErrMin= 2.27D-04
 ErrMax= 2.27D-04  0.00D+00 EMaxC= 1.00D-01 BMatC= 1.39D-04 BMatP= 6.40D-04
 IDIUse=3 WtCom= 9.98D-01 WtEn= 2.27D-03
 Coeff-Com:  0.282D-02-0.100D-01-0.106D-01-0.244D-01 0.242D+00 0.801D+00
 Coeff-En:   0.000D+00 0.000D+00 0.000D+00 0.000D+00 0.000D+00 0.100D+01
 Coeff:      0.281D-02-0.100D-01-0.106D-01-0.244D-01 0.241D+00 0.801D+00
 Gap=     0.313 Goal=   None    Shift=    0.000
 Gap=     0.303 Goal=   None    Shift=    0.000
 RMSDP=2.35D-05 MaxDP=1.52D-03 DE=-1.54D-04 OVMax= 2.99D-03

 Cycle   7  Pass 0  IDiag  1:
 RMSU=  1.70D-05    CP:  9.88D-01  9.97D-01  9.62D-01  6.63D-01  1.05D+00
                    CP:  1.19D+00
 E= -637.490562487359     Delta-E=       -0.000047094386 Rises=F Damp=F
 DIIS: error= 1.18D-04 at cycle   7 NSaved=   7.
 NSaved= 7 IEnMin= 7 EnMin= -637.490562487359     IErMin= 7 ErrMin= 1.18D-04
 ErrMax= 1.18D-04  0.00D+00 EMaxC= 1.00D-01 BMatC= 2.33D-05 BMatP= 1.39D-04
 IDIUse=3 WtCom= 9.99D-01 WtEn= 1.18D-03
 Coeff-Com:  0.171D-02-0.323D-02-0.222D-01-0.533D-01-0.891D-01 0.900D-01
 Coeff-Com:  0.108D+01
 Coeff-En:   0.000D+00 0.000D+00 0.000D+00 0.000D+00 0.000D+00 0.000D+00
 Coeff-En:   0.100D+01
 Coeff:      0.171D-02-0.323D-02-0.222D-01-0.532D-01-0.890D-01 0.899D-01
 Coeff:      0.108D+01
 Gap=     0.314 Goal=   None    Shift=    0.000
 Gap=     0.304 Goal=   None    Shift=    0.000
 RMSDP=1.53D-05 MaxDP=1.29D-03 DE=-4.71D-05 OVMax= 2.94D-03

 Cycle   8  Pass 0  IDiag  1:
 RMSU=  7.57D-06    CP:  9.88D-01  9.95D-01  9.64D-01  6.57D-01  1.13D+00
                    CP:  1.41D+00  1.24D+00
 E= -637.490577200634     Delta-E=       -0.000014713275 Rises=F Damp=F
 DIIS: error= 6.31D-05 at cycle   8 NSaved=   8.
 NSaved= 8 IEnMin= 8 EnMin= -637.490577200634     IErMin= 8 ErrMin= 6.31D-05
 ErrMax= 6.31D-05  0.00D+00 EMaxC= 1.00D-01 BMatC= 5.97D-06 BMatP= 2.33D-05
 IDIUse=1 WtCom= 1.00D+00 WtEn= 0.00D+00
 Coeff-Com:  0.285D-03 0.160D-03-0.573D-02-0.193D-01-0.659D-01-0.983D-01
 Coeff-Com:  0.411D+00 0.778D+00
 Coeff:      0.285D-03 0.160D-03-0.573D-02-0.193D-01-0.659D-01-0.983D-01
 Coeff:      0.411D+00 0.778D+00
 Gap=     0.314 Goal=   None    Shift=    0.000
 Gap=     0.304 Goal=   None    Shift=    0.000
 RMSDP=6.34D-06 MaxDP=4.06D-04 DE=-1.47D-05 OVMax= 1.03D-03

 Initial convergence to 1.0D-05 achieved.  Increase integral accuracy.
 Cycle   9  Pass 1  IDiag  1:
 E= -637.490602653361     Delta-E=       -0.000025452727 Rises=F Damp=F
 DIIS: error= 7.16D-05 at cycle   1 NSaved=   1.
 NSaved= 1 IEnMin= 1 EnMin= -637.490602653361     IErMin= 1 ErrMin= 7.16D-05
 ErrMax= 7.16D-05  0.00D+00 EMaxC= 1.00D-01 BMatC= 2.25D-05 BMatP= 2.25D-05
 IDIUse=1 WtCom= 1.00D+00 WtEn= 0.00D+00
 Coeff-Com:  0.100D+01
 Coeff:      0.100D+01
 Gap=     0.314 Goal=   None    Shift=    0.000
 Gap=     0.304 Goal=   None    Shift=    0.000
 RMSDP=6.34D-06 MaxDP=4.06D-04 DE=-2.55D-05 OVMax= 2.88D-04

 Cycle  10  Pass 1  IDiag  1:
 RMSU=  4.88D-05    CP:  1.00D+00
 E= -637.490605251994     Delta-E=       -0.000002598633 Rises=F Damp=F
 DIIS: error= 1.99D-05 at cycle   2 NSaved=   2.
 NSaved= 2 IEnMin= 2 EnMin= -637.490605251994     IErMin= 2 ErrMin= 1.99D-05
 ErrMax= 1.99D-05  0.00D+00 EMaxC= 1.00D-01 BMatC= 1.62D-06 BMatP= 2.25D-05
 IDIUse=1 WtCom= 1.00D+00 WtEn= 0.00D+00
 Coeff-Com:  0.863D-01 0.914D+00
 Coeff:      0.863D-01 0.914D+00
 Gap=     0.314 Goal=   None    Shift=    0.000
 Gap=     0.304 Goal=   None    Shift=    0.000
 RMSDP=3.46D-06 MaxDP=3.36D-04 DE=-2.60D-06 OVMax= 4.75D-04

 Cycle  11  Pass 1  IDiag  1:
 RMSU=  3.10D-06    CP:  1.00D+00  1.03D+00
 E= -637.490605198350     Delta-E=        0.000000053644 Rises=F Damp=F
 DIIS: error= 3.19D-05 at cycle   3 NSaved=   3.
 NSaved= 3 IEnMin= 2 EnMin= -637.490605251994     IErMin= 2 ErrMin= 1.99D-05
 ErrMax= 3.19D-05  0.00D+00 EMaxC= 1.00D-01 BMatC= 2.93D-06 BMatP= 1.62D-06
 IDIUse=1 WtCom= 1.00D+00 WtEn= 0.00D+00
 Coeff-Com: -0.128D-01 0.583D+00 0.429D+00
 Coeff:     -0.128D-01 0.583D+00 0.429D+00
 Gap=     0.314 Goal=   None    Shift=    0.000
 Gap=     0.304 Goal=   None    Shift=    0.000
 RMSDP=1.79D-06 MaxDP=1.85D-04 DE= 5.36D-08 OVMax= 1.15D-04

 Cycle  12  Pass 1  IDiag  1:
 RMSU=  1.18D-06    CP:  1.00D+00  1.04D+00  6.12D-01
 E= -637.490605749783     Delta-E=       -0.000000551433 Rises=F Damp=F
 DIIS: error= 4.38D-06 at cycle   4 NSaved=   4.
 NSaved= 4 IEnMin= 4 EnMin= -637.490605749783     IErMin= 4 ErrMin= 4.38D-06
 ErrMax= 4.38D-06  0.00D+00 EMaxC= 1.00D-01 BMatC= 5.91D-08 BMatP= 1.62D-06
 IDIUse=1 WtCom= 1.00D+00 WtEn= 0.00D+00
 Coeff-Com: -0.735D-02 0.118D+00 0.672D-01 0.822D+00
 Coeff:     -0.735D-02 0.118D+00 0.672D-01 0.822D+00
 Gap=     0.314 Goal=   None    Shift=    0.000
 Gap=     0.304 Goal=   None    Shift=    0.000
 RMSDP=5.13D-07 MaxDP=3.72D-05 DE=-5.51D-07 OVMax= 1.27D-04

 Cycle  13  Pass 1  IDiag  1:
 RMSU=  3.30D-07    CP:  1.00D+00  1.04D+00  6.20D-01  1.33D+00
 E= -637.490605782826     Delta-E=       -0.000000033043 Rises=F Damp=F
 DIIS: error= 7.93D-06 at cycle   5 NSaved=   5.
 NSaved= 5 IEnMin= 5 EnMin= -637.490605782826     IErMin= 4 ErrMin= 4.38D-06
 ErrMax= 7.93D-06  0.00D+00 EMaxC= 1.00D-01 BMatC= 6.56D-08 BMatP= 5.91D-08
 IDIUse=1 WtCom= 1.00D+00 WtEn= 0.00D+00
 Coeff-Com:  0.570D-02-0.368D+00-0.339D+00 0.600D+00 0.110D+01
 Coeff:      0.570D-02-0.368D+00-0.339D+00 0.600D+00 0.110D+01
 Gap=     0.314 Goal=   None    Shift=    0.000
 Gap=     0.304 Goal=   None    Shift=    0.000
 RMSDP=8.85D-07 MaxDP=4.93D-05 DE=-3.30D-08 OVMax= 1.41D-04

 Cycle  14  Pass 1  IDiag  1:
 RMSU=  3.68D-07    CP:  1.00D+00  1.04D+00  6.97D-01  1.96D+00  1.50D+00
 E= -637.490605815241     Delta-E=       -0.000000032414 Rises=F Damp=F
 DIIS: error= 8.60D-07 at cycle   6 NSaved=   6.
 NSaved= 6 IEnMin= 6 EnMin= -637.490605815241     IErMin= 6 ErrMin= 8.60D-07
 ErrMax= 8.60D-07  0.00D+00 EMaxC= 1.00D-01 BMatC= 2.83D-09 BMatP= 5.91D-08
 IDIUse=1 WtCom= 1.00D+00 WtEn= 0.00D+00
 Coeff-Com:  0.296D-02-0.159D+00-0.148D+00 0.193D+00 0.420D+00 0.691D+00
 Coeff:      0.296D-02-0.159D+00-0.148D+00 0.193D+00 0.420D+00 0.691D+00
 Gap=     0.314 Goal=   None    Shift=    0.000
 Gap=     0.304 Goal=   None    Shift=    0.000
 RMSDP=1.42D-07 MaxDP=1.36D-05 DE=-3.24D-08 OVMax= 2.46D-05

 Cycle  15  Pass 1  IDiag  1:
 RMSU=  9.65D-08    CP:  1.00D+00  1.04D+00  6.83D-01  2.03D+00  1.60D+00
                    CP:  1.06D+00
 E= -637.490605816351     Delta-E=       -0.000000001110 Rises=F Damp=F
 DIIS: error= 3.45D-07 at cycle   7 NSaved=   7.
 NSaved= 7 IEnMin= 7 EnMin= -637.490605816351     IErMin= 7 ErrMin= 3.45D-07
 ErrMax= 3.45D-07  0.00D+00 EMaxC= 1.00D-01 BMatC= 4.49D-10 BMatP= 2.83D-09
 IDIUse=1 WtCom= 1.00D+00 WtEn= 0.00D+00
 Coeff-Com:  0.219D-04 0.108D-01 0.764D-02-0.345D-01-0.652D-01 0.251D+00
 Coeff-Com:  0.831D+00
 Coeff:      0.219D-04 0.108D-01 0.764D-02-0.345D-01-0.652D-01 0.251D+00
 Coeff:      0.831D+00
 Gap=     0.314 Goal=   None    Shift=    0.000
 Gap=     0.304 Goal=   None    Shift=    0.000
 RMSDP=6.47D-08 MaxDP=5.30D-06 DE=-1.11D-09 OVMax= 7.55D-06

 Cycle  16  Pass 1  IDiag  1:
 RMSU=  4.22D-08    CP:  1.00D+00  1.04D+00  6.80D-01  2.03D+00  1.62D+00
                    CP:  1.18D+00  1.08D+00
 E= -637.490605816515     Delta-E=       -0.000000000164 Rises=F Damp=F
 DIIS: error= 8.48D-08 at cycle   8 NSaved=   8.
 NSaved= 8 IEnMin= 8 EnMin= -637.490605816515     IErMin= 8 ErrMin= 8.48D-08
 ErrMax= 8.48D-08  0.00D+00 EMaxC= 1.00D-01 BMatC= 2.97D-11 BMatP= 4.49D-10
 IDIUse=1 WtCom= 1.00D+00 WtEn= 0.00D+00
 Coeff-Com: -0.301D-03 0.187D-01 0.166D-01-0.251D-01-0.598D-01-0.136D-01
 Coeff-Com:  0.162D+00 0.901D+00
 Coeff:     -0.301D-03 0.187D-01 0.166D-01-0.251D-01-0.598D-01-0.136D-01
 Coeff:      0.162D+00 0.901D+00
 Gap=     0.314 Goal=   None    Shift=    0.000
 Gap=     0.304 Goal=   None    Shift=    0.000
 RMSDP=2.92D-08 MaxDP=2.09D-06 DE=-1.64D-10 OVMax= 4.63D-06

 Cycle  17  Pass 1  IDiag  1:
 RMSU=  1.46D-08    CP:  1.00D+00  1.04D+00  6.78D-01  2.02D+00  1.61D+00
                    CP:  1.20D+00  1.21D+00  1.37D+00
 E= -637.490605816533     Delta-E=       -0.000000000018 Rises=F Damp=F
 DIIS: error= 5.69D-08 at cycle   9 NSaved=   9.
 NSaved= 9 IEnMin= 9 EnMin= -637.490605816533     IErMin= 9 ErrMin= 5.69D-08
 ErrMax= 5.69D-08  0.00D+00 EMaxC= 1.00D-01 BMatC= 6.96D-12 BMatP= 2.97D-11
 IDIUse=1 WtCom= 1.00D+00 WtEn= 0.00D+00
 Coeff-Com: -0.695D-04 0.273D-02 0.258D-02-0.760D-03-0.489D-02-0.361D-01
 Coeff-Com: -0.775D-01 0.199D+00 0.915D+00
 Coeff:     -0.695D-04 0.273D-02 0.258D-02-0.760D-03-0.489D-02-0.361D-01
 Coeff:     -0.775D-01 0.199D+00 0.915D+00
 Gap=     0.314 Goal=   None    Shift=    0.000
 Gap=     0.304 Goal=   None    Shift=    0.000
 RMSDP=1.48D-08 MaxDP=9.76D-07 DE=-1.82D-11 OVMax= 3.40D-06

 Cycle  18  Pass 1  IDiag  1:
 RMSU=  4.51D-09    CP:  1.00D+00  1.04D+00  6.77D-01  2.02D+00  1.60D+00
                    CP:  1.21D+00  1.25D+00  1.60D+00  1.36D+00
 E= -637.490605816545     Delta-E=       -0.000000000013 Rises=F Damp=F
 DIIS: error= 3.92D-08 at cycle  10 NSaved=  10.
 NSaved=10 IEnMin=10 EnMin= -637.490605816545     IErMin=10 ErrMin= 3.92D-08
 ErrMax= 3.92D-08  0.00D+00 EMaxC= 1.00D-01 BMatC= 2.35D-12 BMatP= 6.96D-12
 IDIUse=1 WtCom= 1.00D+00 WtEn= 0.00D+00
 Coeff-Com:  0.748D-04-0.503D-02-0.442D-02 0.751D-02 0.174D-01-0.648D-02
 Coeff-Com: -0.714D-01-0.218D+00 0.243D+00 0.104D+01
 Coeff:      0.748D-04-0.503D-02-0.442D-02 0.751D-02 0.174D-01-0.648D-02
 Coeff:     -0.714D-01-0.218D+00 0.243D+00 0.104D+01
 Gap=     0.314 Goal=   None    Shift=    0.000
 Gap=     0.304 Goal=   None    Shift=    0.000
 RMSDP=9.68D-09 MaxDP=6.61D-07 DE=-1.27D-11 OVMax= 3.21D-06

 SCF Done:  E(UM062X) =  -637.490605817     A.U. after   18 cycles
            NFock= 18  Conv=0.97D-08     -V/T= 2.0060
 <Sx>= 0.0000 <Sy>= 0.0000 <Sz>= 0.5000 <S**2>= 0.7559 S= 0.5029
 <L.S>=  0.00000000000    
 KE= 6.337111441474D+02 PE=-3.598537149776D+03 EE= 1.269941359978D+03
 Annihilation of the first spin contaminant:
 S**2 before annihilation     0.7559,   after     0.7500
 Leave Link  502 at Thu Jan  9 14:13:36 2025, MaxMem=  4026531840 cpu:           10320.2 elap:             516.2
 (Enter /usr/local/intel/g16/l601.exe)
 Copying SCF densities to generalized density rwf, IOpCl= 1 IROHF=0.

 **********************************************************************

            Population analysis using the SCF Density.

 **********************************************************************

 Orbital symmetries:
 Alpha Orbitals:
       Occupied  (A) (A) (A) (A) (A) (A) (A) (A) (A) (A) (A) (A)
                 (A) (A) (A) (A) (A) (A) (A) (A) (A) (A) (A) (A)
                 (A) (A) (A) (A) (A) (A) (A) (A) (A) (A) (A) (A)
                 (A) (A) (A) (A) (A) (A) (A) (A) (A) (A) (A) (A)
                 (A) (A) (A) (A) (A) (A) (A) (A)
       Virtual   (A) (A) (A) (A) (A) (A) (A) (A) (A) (A) (A) (A)
                 (A) (A) (A) (A) (A) (A) (A) (A) (A) (A) (A) (A)
                 (A) (A) (A) (A) (A) (A) (A) (A) (A) (A) (A) (A)
                 (A) (A) (A) (A) (A) (A) (A) (A) (A) (A) (A) (A)
                 (A) (A) (A) (A) (A) (A) (A) (A) (A) (A) (A) (A)
                 (A) (A) (A) (A) (A) (A) (A) (A) (A) (A) (A) (A)
                 (A) (A) (A) (A) (A) (A) (A) (A) (A) (A) (A) (A)
                 (A) (A) (A) (A) (A) (A) (A) (A) (A) (A) (A) (A)
                 (A) (A) (A) (A) (A) (A) (A) (A) (A) (A) (A) (A)
                 (A) (A) (A) (A) (A) (A) (A) (A) (A) (A) (A) (A)
                 (A) (A) (A) (A) (A) (A) (A) (A) (A) (A) (A) (A)
                 (A) (A) (A) (A) (A) (A) (A) (A) (A) (A) (A) (A)
                 (A) (A) (A) (A) (A) (A) (A) (A) (A) (A) (A) (A)
                 (A) (A) (A) (A) (A) (A) (A) (A) (A) (A) (A) (A)
                 (A) (A) (A) (A) (A) (A) (A) (A) (A) (A) (A) (A)
                 (A) (A) (A) (A) (A) (A) (A) (A) (A) (A) (A) (A)
                 (A) (A) (A) (A) (A) (A) (A) (A) (A) (A) (A) (A)
                 (A) (A) (A) (A) (A) (A) (A) (A) (A) (A) (A) (A)
                 (A) (A) (A) (A) (A) (A) (A) (A) (A) (A) (A) (A)
                 (A) (A) (A) (A) (A) (A) (A) (A) (A) (A) (A) (A)
                 (A) (A) (A) (A) (A) (A) (A) (A) (A) (A) (A) (A)
                 (A) (A) (A) (A) (A) (A) (A) (A) (A) (A) (A) (A)
                 (A) (A) (A) (A) (A) (A) (A) (A) (A) (A) (A) (A)
                 (A) (A) (A) (A) (A) (A) (A) (A) (A) (A) (A) (A)
                 (A) (A) (A) (A) (A) (A) (A) (A) (A) (A) (A) (A)
                 (A) (A) (A) (A) (A) (A) (A) (A) (A) (A) (A) (A)
                 (A) (A) (A) (A) (A) (A) (A) (A) (A) (A) (A) (A)
                 (A) (A) (A) (A) (A) (A) (A) (A) (A) (A) (A) (A)
                 (A) (A) (A) (A) (A) (A) (A) (A) (A) (A) (A) (A)
                 (A) (A) (A) (A) (A) (A) (A) (A) (A) (A) (A) (A)
                 (A) (A) (A) (A) (A) (A) (A) (A) (A) (A) (A) (A)
                 (A) (A) (A) (A) (A) (A) (A) (A) (A) (A) (A) (A)
                 (A) (A) (A) (A) (A) (A) (A) (A) (A) (A) (A) (A)
                 (A) (A) (A) (A) (A) (A) (A) (A) (A) (A) (A) (A)
                 (A) (A) (A) (A) (A) (A) (A) (A) (A) (A) (A) (A)
                 (A) (A) (A) (A) (A) (A) (A) (A) (A) (A) (A) (A)
                 (A) (A) (A) (A) (A) (A) (A) (A) (A) (A) (A) (A)
                 (A) (A) (A) (A) (A) (A) (A) (A) (A) (A) (A) (A)
                 (A) (A) (A) (A) (A) (A) (A) (A) (A) (A) (A) (A)
                 (A) (A) (A) (A) (A) (A) (A) (A) (A) (A) (A) (A)
                 (A) (A) (A) (A) (A) (A) (A) (A) (A) (A) (A) (A)
                 (A) (A) (A) (A) (A) (A) (A) (A) (A) (A) (A) (A)
                 (A) (A) (A) (A) (A) (A)
 Beta  Orbitals:
       Occupied  (A) (A) (A) (A) (A) (A) (A) (A) (A) (A) (A) (A)
                 (A) (A) (A) (A) (A) (A) (A) (A) (A) (A) (A) (A)
                 (A) (A) (A) (A) (A) (A) (A) (A) (A) (A) (A) (A)
                 (A) (A) (A) (A) (A) (A) (A) (A) (A) (A) (A) (A)
                 (A) (A) (A) (A) (A) (A) (A)
       Virtual   (A) (A) (A) (A) (A) (A) (A) (A) (A) (A) (A) (A)
                 (A) (A) (A) (A) (A) (A) (A) (A) (A) (A) (A) (A)
                 (A) (A) (A) (A) (A) (A) (A) (A) (A) (A) (A) (A)
                 (A) (A) (A) (A) (A) (A) (A) (A) (A) (A) (A) (A)
                 (A) (A) (A) (A) (A) (A) (A) (A) (A) (A) (A) (A)
                 (A) (A) (A) (A) (A) (A) (A) (A) (A) (A) (A) (A)
                 (A) (A) (A) (A) (A) (A) (A) (A) (A) (A) (A) (A)
                 (A) (A) (A) (A) (A) (A) (A) (A) (A) (A) (A) (A)
                 (A) (A) (A) (A) (A) (A) (A) (A) (A) (A) (A) (A)
                 (A) (A) (A) (A) (A) (A) (A) (A) (A) (A) (A) (A)
                 (A) (A) (A) (A) (A) (A) (A) (A) (A) (A) (A) (A)
                 (A) (A) (A) (A) (A) (A) (A) (A) (A) (A) (A) (A)
                 (A) (A) (A) (A) (A) (A) (A) (A) (A) (A) (A) (A)
                 (A) (A) (A) (A) (A) (A) (A) (A) (A) (A) (A) (A)
                 (A) (A) (A) (A) (A) (A) (A) (A) (A) (A) (A) (A)
                 (A) (A) (A) (A) (A) (A) (A) (A) (A) (A) (A) (A)
                 (A) (A) (A) (A) (A) (A) (A) (A) (A) (A) (A) (A)
                 (A) (A) (A) (A) (A) (A) (A) (A) (A) (A) (A) (A)
                 (A) (A) (A) (A) (A) (A) (A) (A) (A) (A) (A) (A)
                 (A) (A) (A) (A) (A) (A) (A) (A) (A) (A) (A) (A)
                 (A) (A) (A) (A) (A) (A) (A) (A) (A) (A) (A) (A)
                 (A) (A) (A) (A) (A) (A) (A) (A) (A) (A) (A) (A)
                 (A) (A) (A) (A) (A) (A) (A) (A) (A) (A) (A) (A)
                 (A) (A) (A) (A) (A) (A) (A) (A) (A) (A) (A) (A)
                 (A) (A) (A) (A) (A) (A) (A) (A) (A) (A) (A) (A)
                 (A) (A) (A) (A) (A) (A) (A) (A) (A) (A) (A) (A)
                 (A) (A) (A) (A) (A) (A) (A) (A) (A) (A) (A) (A)
                 (A) (A) (A) (A) (A) (A) (A) (A) (A) (A) (A) (A)
                 (A) (A) (A) (A) (A) (A) (A) (A) (A) (A) (A) (A)
                 (A) (A) (A) (A) (A) (A) (A) (A) (A) (A) (A) (A)
                 (A) (A) (A) (A) (A) (A) (A) (A) (A) (A) (A) (A)
                 (A) (A) (A) (A) (A) (A) (A) (A) (A) (A) (A) (A)
                 (A) (A) (A) (A) (A) (A) (A) (A) (A) (A) (A) (A)
                 (A) (A) (A) (A) (A) (A) (A) (A) (A) (A) (A) (A)
                 (A) (A) (A) (A) (A) (A) (A) (A) (A) (A) (A) (A)
                 (A) (A) (A) (A) (A) (A) (A) (A) (A) (A) (A) (A)
                 (A) (A) (A) (A) (A) (A) (A) (A) (A) (A) (A) (A)
                 (A) (A) (A) (A) (A) (A) (A) (A) (A) (A) (A) (A)
                 (A) (A) (A) (A) (A) (A) (A) (A) (A) (A) (A) (A)
                 (A) (A) (A) (A) (A) (A) (A) (A) (A) (A) (A) (A)
                 (A) (A) (A) (A) (A) (A) (A) (A) (A) (A) (A) (A)
                 (A) (A) (A) (A) (A) (A) (A) (A) (A) (A) (A) (A)
                 (A) (A) (A) (A) (A) (A) (A)
 The electronic state is 2-A.
 Alpha  occ. eigenvalues --  -19.62431 -19.62190 -14.83465 -10.59965 -10.59610
 Alpha  occ. eigenvalues --  -10.59295 -10.54356 -10.54300 -10.53988 -10.53601
 Alpha  occ. eigenvalues --  -10.53362 -10.53063 -10.52730 -10.52464  -1.19126
 Alpha  occ. eigenvalues --   -1.12926  -0.96489  -0.92738  -0.89206  -0.82442
 Alpha  occ. eigenvalues --   -0.81983  -0.79350  -0.78212  -0.77635  -0.72294
 Alpha  occ. eigenvalues --   -0.67865  -0.64713  -0.59792  -0.59233  -0.57415
 Alpha  occ. eigenvalues --   -0.56013  -0.55548  -0.53036  -0.51842  -0.50654
 Alpha  occ. eigenvalues --   -0.49683  -0.48755  -0.47440  -0.47170  -0.46623
 Alpha  occ. eigenvalues --   -0.45870  -0.45306  -0.45038  -0.43416  -0.43199
 Alpha  occ. eigenvalues --   -0.42617  -0.41916  -0.40967  -0.40585  -0.39150
 Alpha  occ. eigenvalues --   -0.38562  -0.38132  -0.37100  -0.34564  -0.33526
 Alpha  occ. eigenvalues --   -0.26610
 Alpha virt. eigenvalues --    0.04765   0.06283   0.07419   0.08114   0.08805
 Alpha virt. eigenvalues --    0.09457   0.10724   0.11067   0.12188   0.12499
 Alpha virt. eigenvalues --    0.12834   0.13262   0.14445   0.15127   0.15359
 Alpha virt. eigenvalues --    0.15941   0.16667   0.17427   0.17545   0.17817
 Alpha virt. eigenvalues --    0.18469   0.18712   0.18907   0.19798   0.20479
 Alpha virt. eigenvalues --    0.21483   0.21737   0.22030   0.22771   0.23006
 Alpha virt. eigenvalues --    0.23713   0.24393   0.25415   0.25910   0.26640
 Alpha virt. eigenvalues --    0.27096   0.28696   0.29488   0.29691   0.30367
 Alpha virt. eigenvalues --    0.30854   0.32184   0.33749   0.34764   0.34822
 Alpha virt. eigenvalues --    0.35666   0.36480   0.36925   0.37713   0.38477
 Alpha virt. eigenvalues --    0.39079   0.39269   0.39439   0.40935   0.41241
 Alpha virt. eigenvalues --    0.41811   0.42349   0.43645   0.44056   0.44120
 Alpha virt. eigenvalues --    0.44717   0.45504   0.45570   0.46219   0.46615
 Alpha virt. eigenvalues --    0.47353   0.47694   0.48183   0.48425   0.48847
 Alpha virt. eigenvalues --    0.49457   0.49608   0.50033   0.50274   0.50838
 Alpha virt. eigenvalues --    0.51763   0.52074   0.52201   0.52732   0.53210
 Alpha virt. eigenvalues --    0.53294   0.53959   0.54787   0.55458   0.56118
 Alpha virt. eigenvalues --    0.56352   0.57379   0.57757   0.59042   0.59473
 Alpha virt. eigenvalues --    0.60062   0.60760   0.62521   0.63499   0.64992
 Alpha virt. eigenvalues --    0.65447   0.67392   0.68019   0.69095   0.70519
 Alpha virt. eigenvalues --    0.71290   0.71920   0.72741   0.74720   0.75604
 Alpha virt. eigenvalues --    0.76980   0.77385   0.79661   0.80638   0.81410
 Alpha virt. eigenvalues --    0.82328   0.83696   0.84570   0.85757   0.88523
 Alpha virt. eigenvalues --    0.88717   0.89576   0.91033   0.92037   0.93446
 Alpha virt. eigenvalues --    0.93957   0.94453   0.94875   0.95172   0.96365
 Alpha virt. eigenvalues --    0.98001   0.98839   1.00778   1.01115   1.01997
 Alpha virt. eigenvalues --    1.03505   1.04267   1.05560   1.06450   1.07417
 Alpha virt. eigenvalues --    1.07800   1.09167   1.10016   1.12125   1.12532
 Alpha virt. eigenvalues --    1.14480   1.15103   1.16030   1.16682   1.18102
 Alpha virt. eigenvalues --    1.19919   1.20210   1.21460   1.23390   1.24250
 Alpha virt. eigenvalues --    1.25495   1.26151   1.27233   1.27738   1.28063
 Alpha virt. eigenvalues --    1.29490   1.29931   1.31387   1.32701   1.33770
 Alpha virt. eigenvalues --    1.35146   1.36961   1.37852   1.38708   1.41572
 Alpha virt. eigenvalues --    1.43684   1.44770   1.44958   1.47312   1.49335
 Alpha virt. eigenvalues --    1.50077   1.50472   1.53552   1.55044   1.55938
 Alpha virt. eigenvalues --    1.57082   1.58071   1.59344   1.60296   1.61547
 Alpha virt. eigenvalues --    1.62557   1.62803   1.62957   1.63842   1.64090
 Alpha virt. eigenvalues --    1.64347   1.65870   1.66684   1.67089   1.67671
 Alpha virt. eigenvalues --    1.68623   1.68858   1.69676   1.70442   1.71190
 Alpha virt. eigenvalues --    1.71848   1.72811   1.73517   1.74690   1.75582
 Alpha virt. eigenvalues --    1.76238   1.78233   1.78977   1.80264   1.81037
 Alpha virt. eigenvalues --    1.81862   1.83201   1.85541   1.86345   1.87734
 Alpha virt. eigenvalues --    1.88728   1.90160   1.91227   1.92508   1.93852
 Alpha virt. eigenvalues --    1.94974   1.95682   1.96743   1.98598   2.00087
 Alpha virt. eigenvalues --    2.00193   2.01052   2.01845   2.03839   2.05104
 Alpha virt. eigenvalues --    2.06479   2.07593   2.08447   2.10106   2.10887
 Alpha virt. eigenvalues --    2.12124   2.12459   2.13589   2.15148   2.15738
 Alpha virt. eigenvalues --    2.16801   2.19101   2.20293   2.20878   2.21601
 Alpha virt. eigenvalues --    2.22351   2.23805   2.24607   2.24902   2.27593
 Alpha virt. eigenvalues --    2.27820   2.29516   2.30644   2.31823   2.32498
 Alpha virt. eigenvalues --    2.33124   2.33975   2.34550   2.35655   2.36663
 Alpha virt. eigenvalues --    2.38177   2.38565   2.38851   2.40238   2.41113
 Alpha virt. eigenvalues --    2.41604   2.41929   2.43057   2.43831   2.45758
 Alpha virt. eigenvalues --    2.46504   2.47631   2.48637   2.49403   2.50809
 Alpha virt. eigenvalues --    2.51475   2.52643   2.53674   2.54512   2.55389
 Alpha virt. eigenvalues --    2.56185   2.56845   2.58411   2.59463   2.60034
 Alpha virt. eigenvalues --    2.60433   2.61639   2.62253   2.63827   2.64456
 Alpha virt. eigenvalues --    2.64996   2.65203   2.66065   2.67478   2.67856
 Alpha virt. eigenvalues --    2.69123   2.69717   2.70711   2.71543   2.71859
 Alpha virt. eigenvalues --    2.73294   2.73988   2.74285   2.74761   2.75813
 Alpha virt. eigenvalues --    2.76281   2.78140   2.79981   2.80339   2.81262
 Alpha virt. eigenvalues --    2.81737   2.83464   2.84484   2.85025   2.85460
 Alpha virt. eigenvalues --    2.87153   2.87582   2.88190   2.89151   2.90975
 Alpha virt. eigenvalues --    2.92191   2.92522   2.93314   2.97192   3.00408
 Alpha virt. eigenvalues --    3.00694   3.01622   3.02494   3.03280   3.05264
 Alpha virt. eigenvalues --    3.06390   3.08630   3.10880   3.11063   3.12549
 Alpha virt. eigenvalues --    3.14164   3.14591   3.15156   3.15965   3.17917
 Alpha virt. eigenvalues --    3.19370   3.19644   3.21129   3.22668   3.23346
 Alpha virt. eigenvalues --    3.23581   3.24289   3.25600   3.26436   3.27139
 Alpha virt. eigenvalues --    3.27697   3.28846   3.29241   3.29715   3.30328
 Alpha virt. eigenvalues --    3.31002   3.33686   3.34403   3.34690   3.35655
 Alpha virt. eigenvalues --    3.35943   3.36848   3.37724   3.38822   3.40003
 Alpha virt. eigenvalues --    3.40294   3.40870   3.41794   3.42336   3.42870
 Alpha virt. eigenvalues --    3.44267   3.45195   3.45513   3.46603   3.48662
 Alpha virt. eigenvalues --    3.50168   3.51663   3.52102   3.53525   3.54174
 Alpha virt. eigenvalues --    3.55895   3.57483   3.58716   3.59287   3.60700
 Alpha virt. eigenvalues --    3.61643   3.63507   3.64952   3.65318   3.66006
 Alpha virt. eigenvalues --    3.66835   3.68256   3.69553   3.71005   3.73588
 Alpha virt. eigenvalues --    3.74915   3.76000   3.76718   3.78369   3.80386
 Alpha virt. eigenvalues --    3.81631   3.82950   3.87632   3.88049   3.90049
 Alpha virt. eigenvalues --    3.90488   3.92705   3.94267   3.95504   3.97666
 Alpha virt. eigenvalues --    3.99516   4.00729   4.01231   4.04421   4.04966
 Alpha virt. eigenvalues --    4.05931   4.08236   4.08828   4.09844   4.10517
 Alpha virt. eigenvalues --    4.10899   4.13296   4.14289   4.15355   4.17043
 Alpha virt. eigenvalues --    4.19606   4.21116   4.21835   4.24685   4.25500
 Alpha virt. eigenvalues --    4.28004   4.29590   4.30000   4.31977   4.33681
 Alpha virt. eigenvalues --    4.36921   4.37381   4.37739   4.40165   4.40757
 Alpha virt. eigenvalues --    4.42234   4.43975   4.44883   4.45758   4.46549
 Alpha virt. eigenvalues --    4.48865   4.49882   4.51603   4.54457   4.57951
 Alpha virt. eigenvalues --    4.60054   4.64166   4.66288   4.68235   4.71142
 Alpha virt. eigenvalues --    4.73205   4.75758   4.79170   4.80700   4.82256
 Alpha virt. eigenvalues --    4.85362   4.89983   4.91490   4.93144   4.95650
 Alpha virt. eigenvalues --    4.96518   4.99759   5.02963   5.07647   5.08794
 Alpha virt. eigenvalues --    5.11239   5.19866   5.25332   5.26461   5.29620
 Alpha virt. eigenvalues --    5.33836   5.38475   5.45508   5.46503   5.51017
 Alpha virt. eigenvalues --    5.52764   5.60698   5.70138   5.76852   5.78420
 Alpha virt. eigenvalues --    5.83660   5.84579   6.11291   6.25563   6.29360
 Alpha virt. eigenvalues --    6.43315   6.47792   6.49309   6.69308   6.77471
 Alpha virt. eigenvalues --    6.82348   6.95278   6.99603   7.02581   7.15202
 Alpha virt. eigenvalues --    7.66260  22.52100  22.52845  22.56059  22.59199
 Alpha virt. eigenvalues --   22.61210  22.67266  22.69016  22.72135  22.77055
 Alpha virt. eigenvalues --   22.81237  22.87788  32.98059  44.15615  44.16834
  Beta  occ. eigenvalues --  -19.62188 -19.61341 -14.82662 -10.60000 -10.59642
  Beta  occ. eigenvalues --  -10.59297 -10.54354 -10.54262 -10.53956 -10.53575
  Beta  occ. eigenvalues --  -10.53364 -10.53062 -10.52717 -10.52464  -1.16061
  Beta  occ. eigenvalues --   -1.12918  -0.95184  -0.92586  -0.88877  -0.82165
  Beta  occ. eigenvalues --   -0.80283  -0.79285  -0.78115  -0.77467  -0.72214
  Beta  occ. eigenvalues --   -0.67404  -0.64565  -0.59328  -0.58960  -0.56450
  Beta  occ. eigenvalues --   -0.55149  -0.54176  -0.52827  -0.51737  -0.50568
  Beta  occ. eigenvalues --   -0.49296  -0.47629  -0.47195  -0.46749  -0.45812
  Beta  occ. eigenvalues --   -0.45606  -0.45018  -0.44001  -0.43162  -0.43064
  Beta  occ. eigenvalues --   -0.42495  -0.40798  -0.40489  -0.39259  -0.38791
  Beta  occ. eigenvalues --   -0.37960  -0.37563  -0.35908  -0.34227  -0.31775
  Beta virt. eigenvalues --   -0.01404   0.04783   0.06286   0.07456   0.08221
  Beta virt. eigenvalues --    0.08839   0.09531   0.10741   0.11122   0.12211
  Beta virt. eigenvalues --    0.12631   0.12861   0.13292   0.14486   0.15149
  Beta virt. eigenvalues --    0.15458   0.15993   0.16936   0.17489   0.17568
  Beta virt. eigenvalues --    0.17841   0.18514   0.18730   0.19055   0.19857
  Beta virt. eigenvalues --    0.20498   0.21600   0.21890   0.22102   0.22823
[...]
 02908,-0.00000363,-0.00211665,0.00983696,-0.02121315,0.00009462,0.0008
 1493,-0.00044314,0.00012379,-0.00001550,-0.00016424,0.00068688,-0.0009
 3630,-0.00211380,0.00190380,-0.00009820,-0.00210951,0.00006174,0.00001
 730,0.00011696,-0.00001903,0.00000199,0.00034787,0.00010415,0.00005834
 ,0.00019550,-0.05082676,0.11276292,-0.22275012,-0.00212135,0.00278946,
 -0.00456694,0.05314467,-0.12320147,0.24289591,0.00006136,0.00012314,0.
 00010752,-0.00035932,-0.00007397,0.00027132,-0.00044626,0.00104309,0.0
 0234259,-0.00038300,-0.00026606,0.00003685,0.00020351,-0.00006496,0.00
 004335,-0.00057475,0.00051791,-0.00033194,0.00010613,-0.00001130,0.000
 03477,0.00012390,-0.00001131,-0.00003204,-0.00009375,-0.00003395,0.000
 07162,-0.00000812,0.00011756,-0.00030725,-0.00003231,-0.00009640,-0.00
 010444,-0.00003024,-0.00001284,0.00004860,-0.00025328,0.00008789,0.000
 17205,0.00002639,-0.00004455,-0.00006400,-0.00007406,-0.00001590,-0.00
 003236,0.00002611,-0.00002682,-0.00001843,0.00001470,0.00007670,0.0000
 1143,0.00002547,-0.00005096,0.00000827,-0.00001974,0.00000381,-0.00001
 237,0.00001341,0.00003075,0.00000198,0.00115231,0.01821042,0.00501824,
 -0.00492215,0.00267166,0.00057270,-0.00007594,0.00048490,-0.00016979,0
 .00109100,0.00052383,0.00001401,-0.00086892,0.00093825,0.00109741,0.00
 005675,-0.00012148,-0.00030051,0.00003599,0.00001248,0.00007528,0.0000
 3095,-0.00004102,0.00003833,-0.05169253,-0.04188056,-0.01004066,-0.007
 76987,-0.03479420,-0.00815407,0.00131886,0.00803546,0.00229662,0.06303
 074,0.00014987,-0.00007850,-0.00032198,0.00042983,-0.00011734,-0.00000
 247,-0.00010221,-0.00019878,-0.00089029,0.00004906,0.00037945,0.000146
 57,-0.00002547,-0.00016672,-0.00049363,0.00033289,-0.00027665,0.000252
 53,0.00000684,-0.00001386,0.00000379,0.00000485,-0.00000020,-0.0000270
 0,0.00010919,-0.00001965,-0.00005502,-0.00005596,-0.00018886,0.0002837
 8,-0.00003015,0.00011120,0.00016971,0.00003649,0.00001538,-0.00004967,
 0.00009881,-0.00004255,-0.00013178,-0.00003264,0.00003513,0.00006370,0
 .00000748,0.00001751,0.00002384,0.00001425,-0.00001194,-0.00001103,-0.
 00000884,-0.00000913,-0.00000472,0.00000652,-0.00001046,-0.00000002,0.
 00000129,0.00001392,-0.00000163,-0.00001418,-0.00001283,-0.00000256,-0
 .00151857,-0.00538744,-0.00019786,-0.00008839,0.00158071,0.00068252,-0
 .00003798,0.00029545,0.00003720,0.00012067,0.00176243,0.00029134,0.000
 88623,-0.00002636,-0.00005715,0.00002099,0.00002195,-0.00004155,0.0000
 9556,0.00012906,-0.00012422,-0.00004679,-0.00003849,-0.00008738,-0.042
 22845,-0.29709654,-0.05737426,-0.00001114,-0.00272268,0.00013799,-0.00
 331959,-0.01713106,-0.00355087,0.04616191,0.31866841,-0.00023971,0.000
 30404,0.00065699,-0.00057561,0.00079826,-0.00056591,0.00053053,-0.0001
 1411,-0.00273170,-0.00003701,-0.00030033,-0.00018312,0.00003167,-0.000
 06928,0.00030984,0.00043854,-0.00064905,0.00031517,-0.00003332,0.00005
 656,-0.00008895,0.00000444,0.00000818,0.00003843,0.00002717,-0.0000430
 9,-0.00001635,0.00022912,0.00005035,-0.00006018,0.00009208,0.00000535,
 -0.00002590,0.00001768,0.00002418,0.00001728,0.00027518,-0.00008634,-0
 .00015217,-0.00001507,0.00004607,0.00009778,0.00004760,0.00002153,0.00
 009644,-0.00001077,-0.00001501,0.00002858,-0.00001544,-0.00004135,0.00
 003123,0.00000451,0.00000443,-0.00000208,-0.00000186,-0.00002460,0.000
 01586,0.00001310,0.00000801,0.00000065,-0.00208677,-0.02326770,-0.0079
 4266,-0.00126374,0.00111529,0.00055117,0.00026486,0.00000119,-0.000075
 96,-0.00032228,-0.00014873,0.00150932,0.00178144,-0.00131398,-0.002327
 82,0.00016177,0.00008900,0.00010504,-0.00012526,-0.00019797,0.00019259
 ,0.00002748,0.00004037,0.00013592,-0.00971171,-0.05514109,-0.05919968,
 -0.00280416,-0.00796188,-0.00231211,0.00552084,0.02558864,0.00668222,0
 .00779612,0.06172016,0.06483472,-0.00048968,-0.00016008,-0.00031728,-0
 .00030347,0.00018176,0.00030459,0.00040952,-0.00011307,-0.00034450,0.0
 0215731,0.00251468,-0.00588027,-0.00012756,0.00011081,0.00001815,-0.00
 007522,0.00000765,-0.00004515,-0.00073921,-0.00064548,0.00018100,-0.00
 184114,0.00040473,0.00079403,-0.00002921,-0.00006672,0.00004137,0.0000
 7979,0.00002412,0.00007005,-0.00006666,0.00004848,-0.00004883,-0.00006
 613,-0.00008057,0.00001291,-0.00002964,0.00007405,0.00000334,0.0000965
 0,0.00002726,-0.00008576,0.00022445,0.00025611,-0.00044016,-0.00015238
 ,0.00055483,0.00004176,0.00015314,0.00007231,0.00001621,-0.00016921,0.
 00081739,-0.00011632,-0.00001508,-0.00008302,0.00001807,0.00006680,0.0
 0016307,0.00009703,0.00034823,-0.00002901,0.00040208,-0.22337481,0.021
 51692,0.03298981,-0.03883188,0.00657315,0.00211032,-0.00034865,-0.0001
 8349,-0.00015252,0.00017126,0.00019376,-0.00068206,-0.03179512,-0.0017
 5721,0.00719715,-0.00003617,0.00001573,-0.00137074,0.00169017,-0.00118
 511,0.00228706,0.00111861,-0.00445035,-0.00034555,-0.03192599,-0.00774
 183,-0.00248281,0.00024418,0.00009058,0.00005008,-0.00161174,-0.000404
 41,-0.00029473,0.42011380,0.00047858,0.00066747,0.00025075,0.00076363,
 -0.00011106,-0.00054727,-0.00011766,-0.00099125,0.00074833,0.00038575,
 -0.00150231,0.00401887,-0.00001799,0.00024040,-0.00023458,-0.00003016,
 0.00030076,-0.00015509,0.00005796,-0.00009673,0.00062004,0.00087544,-0
 .00022260,-0.00052242,0.00009203,0.00006687,0.00000969,0.00006518,-0.0
 0004256,0.00014764,-0.00013595,0.00003489,0.00001135,0.00009392,0.0000
 3123,-0.00005453,-0.00011742,0.00006330,0.00006292,-0.00001389,-0.0000
 6931,0.00006075,-0.00000305,0.00014136,-0.00018926,0.00004184,-0.00004
 966,-0.00025205,-0.00001622,0.00008823,0.00009919,0.00009246,-0.000458
 35,0.00010767,-0.00006992,0.00002827,-0.00004995,-0.00001366,0.0000219
 9,0.00002269,0.00046281,-0.00029134,-0.00093771,-0.01754673,-0.0842703
 5,-0.01350577,0.03013669,-0.00584713,-0.00302887,-0.00017196,0.0001542
 2,0.00012087,0.00027485,0.00004956,0.00006985,0.00338336,0.00322817,0.
 00046311,0.00043448,0.00019755,0.00023555,0.00364907,0.00393219,-0.001
 00852,-0.00039417,-0.00647887,-0.00146702,-0.04446976,-0.00518375,0.00
 035197,-0.00014461,-0.00012798,-0.00020458,-0.00210727,-0.00040352,-0.
 00056699,0.13868393,0.46572617,-0.00017321,-0.00011843,0.00006935,-0.0
 0051808,0.00007268,0.00027596,0.00010953,0.00038518,-0.00022615,0.0002
 4434,0.00115856,-0.00293945,0.00005521,-0.00019698,0.00007519,-0.00005
 590,-0.00004090,-0.00005511,0.00030193,0.00028436,-0.00059916,-0.00065
 750,0.00019881,0.00057630,-0.00005120,-0.00004618,-0.00000050,0.000021
 51,0.00003150,0.00003312,0.00005393,0.00002816,0.00004354,-0.00001349,
 -0.00000148,0.00003959,0.00003654,0.00000212,0.00001231,-0.00000776,0.
 00003797,0.00007302,-0.00034427,-0.00040933,0.00055352,0.00005383,-0.0
 0021053,0.00046104,0.00001653,0.00022579,-0.00004498,-0.00011575,0.000
 31668,-0.00006133,0.00005832,-0.00007025,0.00008987,0.00005016,0.00003
 376,-0.00005301,0.00001677,-0.00012548,-0.00110059,0.01105895,-0.01442
 075,-0.07373833,-0.01955404,0.00306004,0.00846671,0.00014086,0.0000608
 5,0.00033914,0.00003097,0.00014976,0.00069125,0.03748761,0.00077293,0.
 00355230,0.00139359,-0.00151139,0.00102980,0.00001798,-0.00148435,0.00
 091211,-0.00048996,-0.00360295,-0.00034710,-0.01768428,-0.00345458,0.0
 0222352,0.00036537,0.00011264,0.00019392,-0.00096678,-0.00027416,-0.00
 014615,0.04587629,0.21079488,0.16349439,0.00017006,0.00005994,-0.00019
 525,0.00004241,0.00001845,0.00007969,-0.00038951,-0.00063632,0.0012250
 2,-0.00027566,-0.00006815,-0.00014696,0.00001439,0.00010453,0.00009059
 ,-0.00021378,0.00037483,-0.00025138,0.00011361,-0.00006805,0.00002117,
 0.00004034,0.00001359,0.00001575,0.00004059,0.00002138,-0.00000262,0.0
 0000327,-0.00003298,-0.00001928,-0.00004090,0.00000032,-0.00006916,0.0
 0005128,-0.00001548,-0.00003669,-0.00009699,0.00011117,0.00011491,0.00
 001403,-0.00003324,0.00000837,-0.00006836,0.00001240,-0.00004762,0.000
 03656,-0.00001991,-0.00002073,0.00003289,0.00007478,0.00000602,0.00001
 206,-0.00001771,-0.00000534,-0.00001372,0.00001012,-0.00000872,0.00000
 865,0.00002033,-0.00000258,-0.00496222,-0.00150984,-0.00254514,0.00238
 953,-0.00262044,-0.00683727,-0.00005401,0.00040003,0.00016332,-0.00084
 212,0.00031326,0.00071006,0.00025556,0.00004186,-0.00032759,-0.0008406
 1,-0.00178084,-0.00069826,-0.00015285,0.00041974,0.00006418,-0.0000079
 2,0.00000241,-0.00009193,-0.01824905,0.00600251,0.02697499,-0.11141316
 ,0.02224954,0.11373329,0.00134929,0.00068232,0.00012837,0.00081865,-0.
 00048387,-0.00000168,0.00054658,-0.00064904,-0.00100160,0.12646417,0.0
 0000172,0.00009005,0.00007317,-0.00007608,-0.00000129,-0.00004182,-0.0
 0016251,-0.00016011,0.00032363,0.00000461,0.00010646,-0.00003417,-0.00
 000234,0.00004170,0.00000261,-0.00006006,0.00008527,-0.00008831,0.0001
 3327,-0.00002377,-0.00012152,0.00001262,-0.00000008,0.00002952,-0.0000
 0223,-0.00000411,0.00001035,0.00001268,0.00000502,0.00000122,-0.000018
 99,-0.00000403,-0.00001359,0.00000740,0.00000240,0.00000863,-0.0000270
 5,0.00002659,0.00003087,-0.00000228,-0.00001105,0.00001931,-0.00010267
 ,-0.00009798,0.00011630,0.00004470,-0.00007893,0.00008898,0.00001599,0
 .00010747,0.00000273,-0.00000771,0.00000321,-0.00000048,0.00000628,-0.
 00002454,0.00001450,0.00000990,0.00000917,-0.00000147,-0.00068844,0.00
 127326,-0.00074353,0.01449002,-0.00879154,-0.03040865,-0.00063110,0.00
 159909,-0.00118520,0.00021616,-0.00013440,-0.00001611,-0.00001181,-0.0
 0014009,-0.00000523,-0.00224335,-0.00472690,-0.00171086,0.00018232,0.0
 0000925,0.00087979,0.00006767,0.00005781,0.00030670,-0.00124376,0.0002
 7590,0.00357465,0.02034131,-0.05465133,-0.03207326,0.00034256,0.000295
 93,-0.00035763,0.00020908,-0.00006426,0.00035370,0.00149715,0.00209258
 ,0.00164518,-0.02103730,0.05898202,0.00003174,0.00000408,0.00002611,0.
 00001434,-0.00000859,-0.00001009,-0.00004130,0.00015503,0.00019872,-0.
 00004359,0.00009144,-0.00000174,0.00006509,-0.00007237,0.00004597,-0.0
 0005053,0.00005647,-0.00003104,0.00003103,0.00010141,-0.00006919,0.000
 00903,0.00001160,0.00002859,0.00000248,0.00000269,-0.00000744,-0.00000
 448,-0.00000572,-0.00001776,0.00002232,0.00000510,0.00000572,0.0000121
 1,0.00000591,-0.00000779,-0.00001034,0.00002057,0.00001794,-0.00000475
 ,0.00000296,0.00001175,-0.00005620,-0.00007881,0.00006427,0.00001509,-
 0.00004666,0.00006772,-0.00000592,0.00003651,-0.00000447,0.00000666,-0
 .00000338,-0.00000264,0.00000136,-0.00000147,0.00000697,0.00000350,0.0
 0000322,-0.00000715,-0.00184705,-0.00055055,0.00043219,0.00567650,-0.0
 0382614,-0.01372517,-0.00051934,0.00043607,0.00087721,-0.00017679,0.00
 005508,0.00028177,-0.00014211,0.00010694,0.00026704,-0.00081824,-0.002
 55498,0.00051394,0.00027119,-0.00058003,0.00012988,0.00002203,-0.00012
 208,0.00000990,-0.00522188,0.00183316,0.00672968,0.11316807,-0.0335970
 3,-0.23792272,0.00030814,0.00014622,0.00102349,0.00073024,0.00013100,0
 .00010861,0.00001441,0.00104428,0.00117258,-0.12191101,0.04018972,0.25
 726025,-0.00004658,0.00025585,0.00023966,-0.00007592,-0.00003263,-0.00
 016767,0.00016884,0.00019320,-0.00011666,-0.00024168,-0.00037303,-0.00
 004987,-0.00002289,-0.00009362,-0.00012476,-0.00000894,0.00003911,0.00
 002048,0.00007023,0.00001979,-0.00004576,0.00011066,-0.00000721,-0.000
 00866,-0.00007522,0.00001288,0.00004927,0.00008426,0.00010225,0.000181
 42,-0.00003829,0.00003901,0.00010635,-0.00001200,0.00000071,0.00000139
 ,-0.00000292,-0.00000402,0.00001240,-0.00000251,0.00001973,0.00002881,
 -0.00001957,-0.00002936,0.00001638,0.00000487,-0.00002464,-0.00000763,
 0.00000768,0.00000949,0.00002100,0.00002334,-0.00003682,0.00000835,-0.
 00001428,-0.00000387,0.00000026,0.00001268,0.00003155,-0.00000050,0.00
 143314,-0.00060300,-0.00103439,0.00138394,-0.00454923,0.00547243,0.000
 03929,-0.00111407,-0.00040369,-0.00019197,-0.00001972,0.00002039,0.000
 13651,0.00014233,0.00072191,0.00035705,0.00038436,-0.00010039,-0.00012
 748,0.00006874,-0.00013590,0.00018432,-0.00028171,0.00003533,-0.012232
 25,0.02131531,-0.02389118,-0.07271820,0.05597681,-0.05321761,-0.006092
 74,-0.00122173,-0.00057455,0.00172820,-0.00008800,0.00042782,0.0006863
 7,-0.00016362,-0.00008937,0.00515118,-0.01174210,0.01044293,0.08026316
 ,0.00014507,0.00015783,0.00008318,0.00002128,0.00005182,-0.00014599,-0
 .00009388,-0.00029001,0.00002314,-0.00067050,-0.00033606,0.00035839,-0
 .00005881,0.00011150,-0.00006838,0.00002457,0.00004137,-0.00001199,0.0
 0008227,-0.00003809,0.00007253,0.00036534,-0.00010835,-0.00013792,0.00
 001589,0.00001767,0.00001139,0.00002529,0.00000698,0.00003202,-0.00005
 256,-0.00000075,0.00000187,0.00002468,0.00001329,-0.00000726,-0.000025
 01,0.00000627,-0.00000005,-0.00000931,-0.00002591,0.00001463,0.0000084
 6,0.00002023,-0.00004260,0.00002746,-0.00001197,-0.00008308,-0.0000021
 6,0.00001660,0.00005131,0.00009410,-0.00012221,0.00003767,-0.00004107,
 0.00003083,-0.00003254,0.00001734,0.00007936,0.00001118,0.00033158,0.0
 0012077,-0.00007932,0.01050275,-0.02492921,0.02159615,-0.00336070,-0.0
 0364157,-0.00305690,0.00006938,-0.00005815,-0.00000908,0.00030810,-0.0
 0032775,-0.00011597,0.00053626,0.00127817,-0.00017499,-0.00000793,0.00
 035965,-0.00028674,0.00054571,-0.00154925,0.00064524,-0.00247075,0.003
 78233,-0.00456923,0.05476803,-0.16604037,0.11781318,-0.00169891,0.0007
 4311,-0.00025277,0.00042811,0.00093624,-0.00026532,0.00058312,0.002047
 66,-0.00061519,-0.00199627,0.00346642,-0.00351830,-0.05843264,0.184087
 77,-0.00003229,0.00014450,0.00002537,-0.00004499,-0.00002014,-0.000044
 95,0.00003375,0.00000613,0.00003484,-0.00005987,0.00007604,0.00004088,
 0.00005787,-0.00001761,-0.00005078,-0.00000941,0.00002694,-0.00002688,
 -0.00003436,0.00004619,0.00001596,0.00005666,-0.00003727,-0.00000803,-
 0.00000671,0.00000184,0.00002902,0.00004317,0.00002063,0.00003568,-0.0
 0000769,0.00001399,0.00000616,0.00000142,-0.00000317,0.00000121,-0.000
 01455,0.00001648,0.00000926,0.00000662,-0.00000375,0.00000974,-0.00000
 689,-0.00000631,-0.00001664,-0.00000777,-0.00000038,0.00000073,0.00000
 310,0.00000338,0.00001466,0.00002366,-0.00001771,-0.00000279,-0.000011
 00,-0.00000723,-0.00001256,0.00001860,0.00003174,0.00001542,-0.0001380
 1,-0.00037473,0.00063923,0.00329600,-0.01123501,0.00667798,-0.00176996
 ,-0.00216289,-0.00013789,-0.00017517,0.00012562,0.00018638,-0.00042290
 ,0.00007521,0.00009465,0.00078579,0.00017842,0.00131817,0.00007029,-0.
 00023931,0.00025938,0.00022998,-0.00056308,0.00053325,-0.00203918,0.00
 254550,-0.00431237,-0.05286563,0.12007875,-0.16702853,-0.00126441,-0.0
 0067334,0.00122217,-0.00031631,-0.00028148,0.00009085,0.00106439,0.000
 45342,0.00013949,-0.00883351,0.01887934,-0.01801406,0.06218270,-0.1270
 7693,0.17821466,0.00023063,0.00016010,0.00013312,0.00030656,-0.0000933
 2,-0.00016052,-0.00010300,-0.00020303,0.00021251,-0.00026773,0.0001593
 6,0.00035336,0.00001326,0.00003733,-0.00005417,0.00000813,0.00006980,-
 0.00004567,0.00002410,-0.00019086,-0.00002288,0.00016941,0.00000266,-0
 .00005498,0.00002726,0.00002625,-0.00000691,0.00000001,-0.00001497,0.0
 0002462,-0.00001707,-0.00000187,0.00001286,0.00003816,0.00002783,-0.00
 000867,-0.00002293,-0.00000211,0.00001377,-0.00002058,-0.00002197,0.00
 004486,-0.00010035,-0.00001015,0.00003574,0.00014003,-0.00001968,-0.00
 001390,0.00000904,0.00025272,0.00012706,0.00006707,-0.00009076,0.00002
 103,-0.00002596,0.00001941,0.00000329,0.00000310,0.00006676,-0.0000165
 5,0.00021179,-0.00003781,-0.00029124,-0.01889276,-0.03734331,-0.019414
 79,0.00047993,-0.00149914,0.00006504,0.00003440,0.00006187,0.00003425,
 0.00005841,0.00002838,0.00012714,0.00135557,-0.00011659,0.00082452,0.0
 0042466,0.00012446,0.00015356,0.00016666,0.00192481,-0.00089242,0.0002
 9594,-0.00215800,-0.00038689,-0.00784999,0.00108788,0.00093064,0.00006
 500,-0.00000499,-0.00004153,-0.00064842,-0.00003608,-0.00015283,-0.096
 07776,-0.11378887,-0.05566702,0.00006577,0.00046433,0.00000527,0.00007
 775,-0.00000429,0.00018663,0.11975391,-0.00004353,-0.00005458,0.000021
 30,-0.00016258,-0.00000321,0.00004414,0.00000663,0.00010623,-0.0000304
 2,0.00009395,-0.00027426,0.00016699,0.00000952,-0.00004190,0.00001392,
 -0.00001771,-0.00001565,0.00000446,0.00015280,0.00028746,-0.00000730,0
 .00008094,0.00002590,0.00003586,-0.00001221,-0.00001019,0.00000086,-0.
 00000169,0.00000780,0.00000546,0.00001305,0.00000522,0.00001061,-0.000
 01035,-0.00000679,0.00000286,0.00001168,-0.00000081,0.00000357,-0.0000
 0192,0.00001219,-0.00000182,-0.00008549,-0.00007778,0.00009204,-0.0000
 4002,-0.00010415,0.00002160,-0.00010142,-0.00005965,-0.00009697,-0.000
 03700,-0.00003245,-0.00000536,0.00001600,-0.00000895,0.00001917,-0.000
 00130,-0.00007908,-0.00002351,-0.00006871,-0.00008760,-0.00019845,0.00
 462975,-0.00182732,-0.00021919,0.00244347,0.00268169,-0.00015547,0.000
 01426,0.00001281,0.00005737,0.00001323,0.00002387,0.00012534,0.0010925
 9,0.00043722,0.00014925,-0.00018351,-0.00036244,0.00014280,0.00002581,
 -0.00093333,0.00025357,0.00042518,0.00005606,0.00005397,-0.00201031,0.
 00066831,0.00018117,-0.00008622,-0.00000167,-0.00001906,-0.00002340,0.
 00005099,-0.00002852,-0.15751124,-0.37296611,-0.19278895,0.00003597,0.
 00038482,0.00052665,0.00020993,0.00010377,-0.00000376,0.15112384,0.372
 08356,0.00010636,0.00007722,-0.00004054,0.00041041,-0.00006726,-0.0002
 1716,-0.00010604,-0.00017941,0.00019556,-0.00007177,0.00036221,0.00066
 120,0.00000774,0.00004663,-0.00003833,0.00001808,0.00003966,0.00001740
 ,0.00010663,0.00010548,0.00015471,0.00013595,-0.00002945,-0.00014359,0
 .00002262,0.00002386,-0.00000109,-0.00000386,-0.00001693,-0.00000524,-
 0.00001849,-0.00000705,-0.00000287,0.00001418,0.00000459,-0.00002101,-
 0.00001366,0.00000220,0.00000304,-0.00000715,-0.00001404,-0.00001738,0
 .00012088,0.00009979,-0.00008211,-0.00005809,-0.00001562,-0.00015799,-
 0.00007623,-0.00021272,0.00005992,0.00008507,-0.00007229,0.00000303,-0
 .00006072,0.00002740,-0.00006708,-0.00002381,0.00004136,0.00005327,-0.
 00010510,0.00009984,0.00012800,0.00545361,0.00387055,0.00045239,0.0004
 4030,-0.00135881,-0.00068661,-0.00002068,0.00003608,-0.00000215,-0.000
 05420,-0.00003126,-0.00004336,0.00089366,0.00100578,0.00052817,-0.0000
 1505,0.00001027,-0.00006190,-0.00075182,0.00152005,-0.00012652,0.00027
 364,0.00015735,0.00074948,0.00057050,-0.00027642,-0.00023760,0.0000292
 3,-0.00001187,-0.00002912,0.00006165,0.00003660,0.00001202,-0.08098345
 ,-0.19696922,-0.10520616,-0.00028141,0.00025093,0.00054095,-0.00002069
 ,-0.00020133,0.00004037,0.07392170,0.19164582,0.10358830\\-0.00001282,
 -0.00001226,0.00007241,-0.00001169,-0.00003926,-0.00004559,0.00000396,
 0.00001894,-0.00000305,-0.00001049,0.00001726,0.00000756,0.00000527,0.
 00000694,-0.00000659,0.00001127,0.00001301,-0.00001348,-0.00001097,-0.
 00001473,-0.00001463,-0.00000197,-0.00000575,0.00000724,0.00000520,-0.
 00000153,-0.00000842,0.00000312,0.00000041,-0.00000418,0.00000148,0.00
 000081,-0.00000095,0.00000750,0.00000161,-0.00000594,-0.00000251,-0.00
 000023,0.00000238,0.00000861,0.00001188,0.00000216,-0.00000123,0.00000
 342,-0.00000276,-0.00001011,-0.00000545,0.00000164,-0.00000350,0.00000
 388,-0.00000758,-0.00000269,0.00000065,0.00000066,0.00000206,-0.000003
 42,0.00000234,-0.00000287,0.00000440,-0.00000083,0.00001114,-0.0000085
 4,-0.00000767,0.00003852,0.00000128,-0.00002747,0.00000835,-0.00000768
 ,0.00000455,-0.00000290,0.00000532,-0.00000343,-0.00000341,-0.00000227
 ,-0.00000380,0.00000103,0.00000176,0.00000048,0.00000073,0.00000059,0.
 00000743,-0.00000336,0.00000128,0.00000337,0.00000230,-0.00000573,0.00
 000699,-0.00001765,0.00000233,0.00000005,0.00000686,-0.00000396,0.0000
 0572,0.00000132,-0.00000380,0.00000030,-0.00001884,0.00001695,0.000027
 31,-0.00000273,0.00000416,0.00000733,0.00000087,-0.00000187,-0.0000001
 9,0.00000012,-0.00000040,-0.00000335\\\@
 The archive entry for this job was punched.


 K N O W I N G  IS A BARRIER WHICH PREVENTS LEARNING

                     -- TEACHING OF THE BENE GESSERIT
 Job cpu time:       1 days 12 hours 34 minutes 32.5 seconds.
 Elapsed time:       0 days  1 hours 49 minutes 44.4 seconds.
 File lengths (MBytes):  RWF=   1791 Int=      0 D2E=      0 Chk=     38 Scr=      1
 Normal termination of Gaussian 16 at Thu Jan  9 17:17:53 2025.
