 Entering Gaussian System, Link 0=g16
 Input=gjfs/data_set_12-nBA_dormant-24.gjf
 Output=gjfs/data_set_12-nBA_dormant-24.log
 Initial command:
 /usr/local/intel/g16/l1.exe "/scr/Gau-263223.inp" -scrdir="/scr/"
 Entering Link 1 = /usr/local/intel/g16/l1.exe PID=    263225.
  
 Copyright (c) 1988-2019, Gaussian, Inc.  All Rights Reserved.
  
 This is part of the Gaussian(R) 16 program.  It is based on
 the Gaussian(R) 09 system (copyright 2009, Gaussian, Inc.),
 the Gaussian(R) 03 system (copyright 2003, Gaussian, Inc.),
 the Gaussian(R) 98 system (copyright 1998, Gaussian, Inc.),
 the Gaussian(R) 94 system (copyright 1995, Gaussian, Inc.),
 the Gaussian 92(TM) system (copyright 1992, Gaussian, Inc.),
 the Gaussian 90(TM) system (copyright 1990, Gaussian, Inc.),
 the Gaussian 88(TM) system (copyright 1988, Gaussian, Inc.),
 the Gaussian 86(TM) system (copyright 1986, Carnegie Mellon
 University), and the Gaussian 82(TM) system (copyright 1983,
 Carnegie Mellon University). Gaussian is a federally registered
 trademark of Gaussian, Inc.
  
 This software contains proprietary and confidential information,
 including trade secrets, belonging to Gaussian, Inc.
  
 This software is provided under written license and may be
 used, copied, transmitted, or stored only in accord with that
 written license.
  
 The following legend is applicable only to US Government
 contracts under FAR:
  
                    RESTRICTED RIGHTS LEGEND
  
 Use, reproduction and disclosure by the US Government is
 subject to restrictions as set forth in subparagraphs (a)
 and (c) of the Commercial Computer Software - Restricted
 Rights clause in FAR 52.227-19.
  
 Gaussian, Inc.
 340 Quinnipiac St., Bldg. 40, Wallingford CT 06492
  
  
 ---------------------------------------------------------------
 Warning -- This program may not be used in any manner that
 competes with the business of Gaussian, Inc. or will provide
 assistance to any competitor of Gaussian, Inc.  The licensee
 of this program is prohibited from giving any competitor of
 Gaussian, Inc. access to this program.  By using this program,
 the user acknowledges that Gaussian, Inc. is engaged in the
 business of creating and licensing software in the field of
 computational chemistry and represents and warrants to the
 licensee that it is not a competitor of Gaussian, Inc. and that
 it will not use this program in any manner prohibited above.
 ---------------------------------------------------------------
  

 Cite this work as:
 Gaussian 16, Revision C.01,
 M. J. Frisch, G. W. Trucks, H. B. Schlegel, G. E. Scuseria, 
 M. A. Robb, J. R. Cheeseman, G. Scalmani, V. Barone, 
 G. A. Petersson, H. Nakatsuji, X. Li, M. Caricato, A. V. Marenich, 
 J. Bloino, B. G. Janesko, R. Gomperts, B. Mennucci, H. P. Hratchian, 
 J. V. Ortiz, A. F. Izmaylov, J. L. Sonnenberg, D. Williams-Young, 
 F. Ding, F. Lipparini, F. Egidi, J. Goings, B. Peng, A. Petrone, 
 T. Henderson, D. Ranasinghe, V. G. Zakrzewski, J. Gao, N. Rega, 
 G. Zheng, W. Liang, M. Hada, M. Ehara, K. Toyota, R. Fukuda, 
 J. Hasegawa, M. Ishida, T. Nakajima, Y. Honda, O. Kitao, H. Nakai, 
 T. Vreven, K. Throssell, J. A. Montgomery, Jr., J. E. Peralta, 
 F. Ogliaro, M. J. Bearpark, J. J. Heyd, E. N. Brothers, K. N. Kudin, 
 V. N. Staroverov, T. A. Keith, R. Kobayashi, J. Normand, 
 K. Raghavachari, A. P. Rendell, J. C. Burant, S. S. Iyengar, 
 J. Tomasi, M. Cossi, J. M. Millam, M. Klene, C. Adamo, R. Cammi, 
 J. W. Ochterski, R. L. Martin, K. Morokuma, O. Farkas, 
 J. B. Foresman, and D. J. Fox, Gaussian, Inc., Wallingford CT, 2019.
 
 ******************************************
 Gaussian 16:  ES64L-G16RevC.01  3-Jul-2019
                 7-Jan-2025 
 ******************************************
 %nprocshared=20
 Will use up to   20 processors via shared memory.
 %mem=30GB
 %chk=outputs/data_set_12-nBA_dormant-24.chk
 ----------------------------------
 #p M062X/DEF2TZVP opt freq pop=NBO
 ----------------------------------
 1/18=20,19=15,26=3,38=1/1,3;
 2/9=110,12=2,17=6,18=5,40=1/2;
 3/5=44,7=101,11=2,25=1,30=1,71=1,74=-55/1,2,3;
 4//1;
 5/5=2,38=5/2;
 6/7=2,8=2,9=2,10=2,28=1,40=1/1,7;
 7//1,2,3,16;
 1/18=20,19=15,26=3/3(2);
 2/9=110/2;
 99//99;
 2/9=110/2;
 3/5=44,7=101,11=2,25=1,30=1,71=1,74=-55/1,2,3;
 4/5=5,16=3,69=1/1;
 5/5=2,38=5/2;
 7//1,2,3,16;
 1/18=20,19=15,26=3/3(-5);
 2/9=110/2;
 6/7=2,8=2,9=2,10=2,19=2,28=1,40=1/1,7;
 99/9=1/99;
 Leave Link    1 at Tue Jan  7 17:13:51 2025, MaxMem=  4026531840 cpu:               1.1 elap:               0.1
 (Enter /usr/local/intel/g16/l101.exe)
 --------------------------
 data_set_12-nBA_dormant-24
 --------------------------
 Symbolic Z-matrix:
 Charge =  0 Multiplicity = 1
 C                    -1.60001  -2.79239  -1.30217 
 C                    -1.20521  -1.33592  -1.08134 
 C                    -1.95847  -0.71767   0.09316 
 O                     0.23207  -1.34831  -0.82299 
 N                     0.67465  -0.13328  -0.1371 
 C                     1.35082  -0.47286   1.18371 
 C                     2.86565  -0.15738   1.1431 
 C                     3.18259   1.28239   0.68191 
 C                     2.12907   1.82815  -0.31051 
 C                     1.41153   0.73031  -1.12484 
 C                     0.36306   1.40095  -2.03835 
 C                     2.41046  -0.0407   -2.02313 
 C                     1.1724   -1.96064   1.54045 
 C                     0.66646   0.38171   2.27715 
 O                    -2.10418  -1.23851   1.20574 
 O                    -2.51359   0.48128  -0.24399 
 C                    -3.21208   1.22895   0.8143 
 C                    -3.65204   2.5488    0.20071 
 H                    -2.65188  -2.8675   -1.59588 
 H                    -1.44559  -3.36388  -0.3837 
 H                    -0.98195  -3.21902  -2.09663 
 H                    -1.4144   -0.72742  -1.96519 
 H                     3.35313  -0.88741   0.48818 
 H                     3.27485  -0.32512   2.14636 
 H                     4.17628   1.2979    0.22006 
 H                     3.23236   1.95062   1.54892 
 H                     2.60362   2.51627  -1.01937 
 H                     1.3645    2.40673   0.22186 
 H                    -0.46913   1.78554  -1.44183 
 H                    -0.03443   0.6916   -2.77191 
 H                     0.82292   2.22624  -2.59502 
 H                     1.91135  -0.89618  -2.48491 
 H                     3.28328  -0.40721  -1.47878 
 H                     2.76499   0.62724  -2.81707 
 H                     1.64777  -2.13914   2.51247 
 H                     1.63972  -2.60852   0.79471 
 H                     0.11555  -2.22495   1.61803 
 H                     0.72408   1.45063   2.05099 
 H                     1.14975   0.20851   3.24684 
 H                    -0.38639   0.10117   2.36181 
 H                    -2.51711   1.36943   1.64766 
 H                    -4.05662   0.62868   1.1661 
 H                    -2.78595   3.11453  -0.15369 
 H                    -4.17924   3.14905   0.94942 
 H                    -4.32381   2.37729  -0.64472 
 
 ITRead=  0  0  0  0  0  0  0  0  0  0  0  0  0  0  0  0  0  0  0  0
 ITRead=  0  0  0  0  0  0  0  0  0  0  0  0  0  0  0  0  0  0  0  0
 ITRead=  0  0  0  0  0
 MicOpt= -1 -1 -1 -1 -1 -1 -1 -1 -1 -1 -1 -1 -1 -1 -1 -1 -1 -1 -1 -1
 MicOpt= -1 -1 -1 -1 -1 -1 -1 -1 -1 -1 -1 -1 -1 -1 -1 -1 -1 -1 -1 -1
 MicOpt= -1 -1 -1 -1 -1
 NAtoms=     45 NQM=       45 NQMF=       0 NMMI=      0 NMMIF=      0
                NMic=       0 NMicF=      0.
                    Isotopes and Nuclear Properties:
 (Nuclear quadrupole moments (NQMom) in fm**2, nuclear magnetic moments (NMagM)
  in nuclear magnetons)

  Atom         1           2           3           4           5           6           7           8           9          10
 IAtWgt=          12          12          12          16          14          12          12          12          12          12
 AtmWgt=  12.0000000  12.0000000  12.0000000  15.9949146  14.0030740  12.0000000  12.0000000  12.0000000  12.0000000  12.0000000
 NucSpn=           0           0           0           0           2           0           0           0           0           0
 AtZEff=  -0.0000000  -0.0000000  -0.0000000  -0.0000000  -0.0000000  -0.0000000  -0.0000000  -0.0000000  -0.0000000  -0.0000000
 NQMom=    0.0000000   0.0000000   0.0000000   0.0000000   2.0440000   0.0000000   0.0000000   0.0000000   0.0000000   0.0000000
 NMagM=    0.0000000   0.0000000   0.0000000   0.0000000   0.4037610   0.0000000   0.0000000   0.0000000   0.0000000   0.0000000
 AtZNuc=   6.0000000   6.0000000   6.0000000   8.0000000   7.0000000   6.0000000   6.0000000   6.0000000   6.0000000   6.0000000

  Atom        11          12          13          14          15          16          17          18          19          20
 IAtWgt=          12          12          12          12          16          16          12          12           1           1
 AtmWgt=  12.0000000  12.0000000  12.0000000  12.0000000  15.9949146  15.9949146  12.0000000  12.0000000   1.0078250   1.0078250
 NucSpn=           0           0           0           0           0           0           0           0           1           1
 AtZEff=  -0.0000000  -0.0000000  -0.0000000  -0.0000000  -0.0000000  -0.0000000  -0.0000000  -0.0000000  -0.0000000  -0.0000000
 NQMom=    0.0000000   0.0000000   0.0000000   0.0000000   0.0000000   0.0000000   0.0000000   0.0000000   0.0000000   0.0000000
 NMagM=    0.0000000   0.0000000   0.0000000   0.0000000   0.0000000   0.0000000   0.0000000   0.0000000   2.7928460   2.7928460
 AtZNuc=   6.0000000   6.0000000   6.0000000   6.0000000   8.0000000   8.0000000   6.0000000   6.0000000   1.0000000   1.0000000

  Atom        21          22          23          24          25          26          27          28          29          30
 IAtWgt=           1           1           1           1           1           1           1           1           1           1
 AtmWgt=   1.0078250   1.0078250   1.0078250   1.0078250   1.0078250   1.0078250   1.0078250   1.0078250   1.0078250   1.0078250
 NucSpn=           1           1           1           1           1           1           1           1           1           1
 AtZEff=  -0.0000000  -0.0000000  -0.0000000  -0.0000000  -0.0000000  -0.0000000  -0.0000000  -0.0000000  -0.0000000  -0.0000000
 NQMom=    0.0000000   0.0000000   0.0000000   0.0000000   0.0000000   0.0000000   0.0000000   0.0000000   0.0000000   0.0000000
 NMagM=    2.7928460   2.7928460   2.7928460   2.7928460   2.7928460   2.7928460   2.7928460   2.7928460   2.7928460   2.7928460
 AtZNuc=   1.0000000   1.0000000   1.0000000   1.0000000   1.0000000   1.0000000   1.0000000   1.0000000   1.0000000   1.0000000

  Atom        31          32          33          34          35          36          37          38          39          40
 IAtWgt=           1           1           1           1           1           1           1           1           1           1
 AtmWgt=   1.0078250   1.0078250   1.0078250   1.0078250   1.0078250   1.0078250   1.0078250   1.0078250   1.0078250   1.0078250
 NucSpn=           1           1           1           1           1           1           1           1           1           1
 AtZEff=  -0.0000000  -0.0000000  -0.0000000  -0.0000000  -0.0000000  -0.0000000  -0.0000000  -0.0000000  -0.0000000  -0.0000000
 NQMom=    0.0000000   0.0000000   0.0000000   0.0000000   0.0000000   0.0000000   0.0000000   0.0000000   0.0000000   0.0000000
 NMagM=    2.7928460   2.7928460   2.7928460   2.7928460   2.7928460   2.7928460   2.7928460   2.7928460   2.7928460   2.7928460
 AtZNuc=   1.0000000   1.0000000   1.0000000   1.0000000   1.0000000   1.0000000   1.0000000   1.0000000   1.0000000   1.0000000

  Atom        41          42          43          44          45
 IAtWgt=           1           1           1           1           1
 AtmWgt=   1.0078250   1.0078250   1.0078250   1.0078250   1.0078250
 NucSpn=           1           1           1           1           1
 AtZEff=  -0.0000000  -0.0000000  -0.0000000  -0.0000000  -0.0000000
 NQMom=    0.0000000   0.0000000   0.0000000   0.0000000   0.0000000
 NMagM=    2.7928460   2.7928460   2.7928460   2.7928460   2.7928460
 AtZNuc=   1.0000000   1.0000000   1.0000000   1.0000000   1.0000000
 Leave Link  101 at Tue Jan  7 17:13:54 2025, MaxMem=  4026531840 cpu:              22.9 elap:               1.2
 (Enter /usr/local/intel/g16/l103.exe)

 GradGradGradGradGradGradGradGradGradGradGradGradGradGradGradGradGradGrad
 Berny optimization.
 Initialization pass.
                           ----------------------------
                           !    Initial Parameters    !
                           ! (Angstroms and Degrees)  !
 --------------------------                            --------------------------
 ! Name  Definition              Value          Derivative Info.                !
 --------------------------------------------------------------------------------
 ! R1    R(1,2)                  1.5251         estimate D2E/DX2                !
 ! R2    R(1,19)                 1.0947         estimate D2E/DX2                !
 ! R3    R(1,20)                 1.0927         estimate D2E/DX2                !
 ! R4    R(1,21)                 1.0932         estimate D2E/DX2                !
 ! R5    R(2,3)                  1.5261         estimate D2E/DX2                !
 ! R6    R(2,4)                  1.4604         estimate D2E/DX2                !
 ! R7    R(2,22)                 1.0933         estimate D2E/DX2                !
 ! R8    R(3,15)                 1.2371         estimate D2E/DX2                !
 ! R9    R(3,16)                 1.3636         estimate D2E/DX2                !
 ! R10   R(4,5)                  1.4638         estimate D2E/DX2                !
 ! R11   R(5,6)                  1.5222         estimate D2E/DX2                !
 ! R12   R(5,10)                 1.5048         estimate D2E/DX2                !
 ! R13   R(6,7)                  1.5479         estimate D2E/DX2                !
 ! R14   R(6,13)                 1.5403         estimate D2E/DX2                !
 ! R15   R(6,14)                 1.5473         estimate D2E/DX2                !
 ! R16   R(7,8)                  1.5447         estimate D2E/DX2                !
 ! R17   R(7,23)                 1.0952         estimate D2E/DX2                !
 ! R18   R(7,24)                 1.0964         estimate D2E/DX2                !
 ! R19   R(8,9)                  1.5468         estimate D2E/DX2                !
 ! R20   R(8,25)                 1.0959         estimate D2E/DX2                !
 ! R21   R(8,26)                 1.0958         estimate D2E/DX2                !
 ! R22   R(9,10)                 1.5438         estimate D2E/DX2                !
 ! R23   R(9,27)                 1.096          estimate D2E/DX2                !
 ! R24   R(9,28)                 1.0967         estimate D2E/DX2                !
 ! R25   R(10,11)                1.5439         estimate D2E/DX2                !
 ! R26   R(10,12)                1.549          estimate D2E/DX2                !
 ! R27   R(11,29)                1.0938         estimate D2E/DX2                !
 ! R28   R(11,30)                1.0951         estimate D2E/DX2                !
 ! R29   R(11,31)                1.0966         estimate D2E/DX2                !
 ! R30   R(12,32)                1.0928         estimate D2E/DX2                !
 ! R31   R(12,33)                1.092          estimate D2E/DX2                !
 ! R32   R(12,34)                1.0964         estimate D2E/DX2                !
 ! R33   R(13,35)                1.0967         estimate D2E/DX2                !
 ! R34   R(13,36)                1.0928         estimate D2E/DX2                !
 ! R35   R(13,37)                1.0922         estimate D2E/DX2                !
 ! R36   R(14,38)                1.0941         estimate D2E/DX2                !
 ! R37   R(14,39)                1.0972         estimate D2E/DX2                !
 ! R38   R(14,40)                1.0929         estimate D2E/DX2                !
 ! R39   R(16,17)                1.472          estimate D2E/DX2                !
 ! R40   R(17,18)                1.5205         estimate D2E/DX2                !
 ! R41   R(17,41)                1.0942         estimate D2E/DX2                !
 ! R42   R(17,42)                1.0942         estimate D2E/DX2                !
 ! R43   R(18,43)                1.0935         estimate D2E/DX2                !
 ! R44   R(18,44)                1.0949         estimate D2E/DX2                !
 ! R45   R(18,45)                1.0934         estimate D2E/DX2                !
 ! A1    A(2,1,19)             110.6781         estimate D2E/DX2                !
 ! A2    A(2,1,20)             109.9482         estimate D2E/DX2                !
 ! A3    A(2,1,21)             109.3633         estimate D2E/DX2                !
 ! A4    A(19,1,20)            108.9911         estimate D2E/DX2                !
 ! A5    A(19,1,21)            108.7527         estimate D2E/DX2                !
 ! A6    A(20,1,21)            109.0766         estimate D2E/DX2                !
 ! A7    A(1,2,3)              111.7491         estimate D2E/DX2                !
 ! A8    A(1,2,4)              105.8006         estimate D2E/DX2                !
 ! A9    A(1,2,22)             111.4043         estimate D2E/DX2                !
 ! A10   A(3,2,4)              110.6747         estimate D2E/DX2                !
 ! A11   A(3,2,22)             107.5931         estimate D2E/DX2                !
 ! A12   A(4,2,22)             109.6372         estimate D2E/DX2                !
 ! A13   A(2,3,15)             125.431          estimate D2E/DX2                !
 ! A14   A(2,3,16)             111.5216         estimate D2E/DX2                !
 ! A15   A(15,3,16)            122.9988         estimate D2E/DX2                !
 ! A16   A(2,4,5)              111.9275         estimate D2E/DX2                !
 ! A17   A(4,5,6)              110.8378         estimate D2E/DX2                !
 ! A18   A(4,5,10)             108.4734         estimate D2E/DX2                !
 ! A19   A(6,5,10)             118.6895         estimate D2E/DX2                !
 ! A20   A(5,6,7)              111.4994         estimate D2E/DX2                !
 ! A21   A(5,6,13)             111.4063         estimate D2E/DX2                !
 ! A22   A(5,6,14)             107.0675         estimate D2E/DX2                !
 ! A23   A(7,6,13)             108.4396         estimate D2E/DX2                !
 ! A24   A(7,6,14)             109.8052         estimate D2E/DX2                !
 ! A25   A(13,6,14)            108.5754         estimate D2E/DX2                !
 ! A26   A(6,7,8)              113.4912         estimate D2E/DX2                !
 ! A27   A(6,7,23)             108.387          estimate D2E/DX2                !
 ! A28   A(6,7,24)             108.063          estimate D2E/DX2                !
 ! A29   A(8,7,23)             110.5743         estimate D2E/DX2                !
 ! A30   A(8,7,24)             109.8297         estimate D2E/DX2                !
 ! A31   A(23,7,24)            106.2049         estimate D2E/DX2                !
 ! A32   A(7,8,9)              112.3753         estimate D2E/DX2                !
 ! A33   A(7,8,25)             108.9694         estimate D2E/DX2                !
 ! A34   A(7,8,26)             109.9673         estimate D2E/DX2                !
 ! A35   A(9,8,25)             110.0104         estimate D2E/DX2                !
 ! A36   A(9,8,26)             108.8698         estimate D2E/DX2                !
 ! A37   A(25,8,26)            106.4775         estimate D2E/DX2                !
 ! A38   A(8,9,10)             113.8342         estimate D2E/DX2                !
 ! A39   A(8,9,27)             109.9735         estimate D2E/DX2                !
 ! A40   A(8,9,28)             110.458          estimate D2E/DX2                !
 ! A41   A(10,9,27)            107.8529         estimate D2E/DX2                !
 ! A42   A(10,9,28)            107.8901         estimate D2E/DX2                !
 ! A43   A(27,9,28)            106.5344         estimate D2E/DX2                !
 ! A44   A(5,10,9)             106.8269         estimate D2E/DX2                !
 ! A45   A(5,10,11)            107.766          estimate D2E/DX2                !
 ! A46   A(5,10,12)            114.2551         estimate D2E/DX2                !
 ! A47   A(9,10,11)            108.5941         estimate D2E/DX2                !
 ! A48   A(9,10,12)            111.1086         estimate D2E/DX2                !
 ! A49   A(11,10,12)           108.122          estimate D2E/DX2                !
 ! A50   A(10,11,29)           110.2887         estimate D2E/DX2                !
 ! A51   A(10,11,30)           111.1912         estimate D2E/DX2                !
 ! A52   A(10,11,31)           110.0299         estimate D2E/DX2                !
 ! A53   A(29,11,30)           108.4764         estimate D2E/DX2                !
 ! A54   A(29,11,31)           109.3473         estimate D2E/DX2                !
 ! A55   A(30,11,31)           107.4375         estimate D2E/DX2                !
 ! A56   A(10,12,32)           109.8882         estimate D2E/DX2                !
 ! A57   A(10,12,33)           113.1685         estimate D2E/DX2                !
 ! A58   A(10,12,34)           108.9794         estimate D2E/DX2                !
 ! A59   A(32,12,33)           108.2378         estimate D2E/DX2                !
 ! A60   A(32,12,34)           108.5779         estimate D2E/DX2                !
 ! A61   A(33,12,34)           107.8772         estimate D2E/DX2                !
 ! A62   A(6,13,35)            108.1968         estimate D2E/DX2                !
 ! A63   A(6,13,36)            111.4108         estimate D2E/DX2                !
 ! A64   A(6,13,37)            111.2413         estimate D2E/DX2                !
 ! A65   A(35,13,36)           108.8433         estimate D2E/DX2                !
 ! A66   A(35,13,37)           108.4883         estimate D2E/DX2                !
 ! A67   A(36,13,37)           108.5898         estimate D2E/DX2                !
 ! A68   A(6,14,38)            111.7286         estimate D2E/DX2                !
 ! A69   A(6,14,39)            110.0312         estimate D2E/DX2                !
 ! A70   A(6,14,40)            109.8194         estimate D2E/DX2                !
 ! A71   A(38,14,39)           108.2829         estimate D2E/DX2                !
 ! A72   A(38,14,40)           108.5145         estimate D2E/DX2                !
 ! A73   A(39,14,40)           108.3825         estimate D2E/DX2                !
 ! A74   A(3,16,17)            117.5172         estimate D2E/DX2                !
 ! A75   A(16,17,18)           106.742          estimate D2E/DX2                !
 ! A76   A(16,17,41)           108.1433         estimate D2E/DX2                !
 ! A77   A(16,17,42)           108.5868         estimate D2E/DX2                !
 ! A78   A(18,17,41)           112.3136         estimate D2E/DX2                !
 ! A79   A(18,17,42)           112.4942         estimate D2E/DX2                !
 ! A80   A(41,17,42)           108.408          estimate D2E/DX2                !
 ! A81   A(17,18,43)           110.5292         estimate D2E/DX2                !
 ! A82   A(17,18,44)           109.8309         estimate D2E/DX2                !
 ! A83   A(17,18,45)           110.7099         estimate D2E/DX2                !
 ! A84   A(43,18,44)           108.6245         estimate D2E/DX2                !
 ! A85   A(43,18,45)           108.4924         estimate D2E/DX2                !
 ! A86   A(44,18,45)           108.5967         estimate D2E/DX2                !
 ! D1    D(19,1,2,3)            64.7384         estimate D2E/DX2                !
 ! D2    D(19,1,2,4)          -174.7348         estimate D2E/DX2                !
 ! D3    D(19,1,2,22)          -55.653          estimate D2E/DX2                !
 ! D4    D(20,1,2,3)           -55.7269         estimate D2E/DX2                !
 ! D5    D(20,1,2,4)            64.7998         estimate D2E/DX2                !
 ! D6    D(20,1,2,22)         -176.1184         estimate D2E/DX2                !
 ! D7    D(21,1,2,3)          -175.4687         estimate D2E/DX2                !
 ! D8    D(21,1,2,4)           -54.9419         estimate D2E/DX2                !
 ! D9    D(21,1,2,22)           64.1398         estimate D2E/DX2                !
 ! D10   D(1,2,3,15)            46.8953         estimate D2E/DX2                !
 ! D11   D(1,2,3,16)          -130.624          estimate D2E/DX2                !
 ! D12   D(4,2,3,15)           -70.7426         estimate D2E/DX2                !
 ! D13   D(4,2,3,16)           111.7381         estimate D2E/DX2                !
 ! D14   D(22,2,3,15)          169.4902         estimate D2E/DX2                !
 ! D15   D(22,2,3,16)           -8.0291         estimate D2E/DX2                !
 ! D16   D(1,2,4,5)           -159.6976         estimate D2E/DX2                !
 ! D17   D(3,2,4,5)            -38.4735         estimate D2E/DX2                !
 ! D18   D(22,2,4,5)            80.0592         estimate D2E/DX2                !
 ! D19   D(2,3,16,17)         -176.8078         estimate D2E/DX2                !
 ! D20   D(15,3,16,17)           5.6022         estimate D2E/DX2                !
 ! D21   D(2,4,5,6)            122.0243         estimate D2E/DX2                !
 ! D22   D(2,4,5,10)          -106.0071         estimate D2E/DX2                !
 ! D23   D(4,5,6,7)            111.7642         estimate D2E/DX2                !
 ! D24   D(4,5,6,13)            -9.5389         estimate D2E/DX2                !
 ! D25   D(4,5,6,14)          -128.1118         estimate D2E/DX2                !
 ! D26   D(10,5,6,7)           -14.7326         estimate D2E/DX2                !
 ! D27   D(10,5,6,13)         -136.0358         estimate D2E/DX2                !
 ! D28   D(10,5,6,14)          105.3913         estimate D2E/DX2                !
 ! D29   D(4,5,10,9)          -167.48           estimate D2E/DX2                !
 ! D30   D(4,5,10,11)           75.9873         estimate D2E/DX2                !
 ! D31   D(4,5,10,12)          -44.1856         estimate D2E/DX2                !
 ! D32   D(6,5,10,9)           -39.8646         estimate D2E/DX2                !
 ! D33   D(6,5,10,11)         -156.3973         estimate D2E/DX2                !
 ! D34   D(6,5,10,12)           83.4298         estimate D2E/DX2                !
 ! D35   D(5,6,7,8)             52.2899         estimate D2E/DX2                !
 ! D36   D(5,6,7,23)           -70.9583         estimate D2E/DX2                !
 ! D37   D(5,6,7,24)           174.3497         estimate D2E/DX2                !
 ! D38   D(13,6,7,8)           175.3036         estimate D2E/DX2                !
 ! D39   D(13,6,7,23)           52.0554         estimate D2E/DX2                !
 ! D40   D(13,6,7,24)          -62.6367         estimate D2E/DX2                !
 ! D41   D(14,6,7,8)           -66.2083         estimate D2E/DX2                !
 ! D42   D(14,6,7,23)          170.5436         estimate D2E/DX2                !
 ! D43   D(14,6,7,24)           55.8515         estimate D2E/DX2                !
 ! D44   D(5,6,13,35)         -178.1086         estimate D2E/DX2                !
 ! D45   D(5,6,13,36)           62.2822         estimate D2E/DX2                !
 ! D46   D(5,6,13,37)          -59.0364         estimate D2E/DX2                !
 ! D47   D(7,6,13,35)           58.8215         estimate D2E/DX2                !
 ! D48   D(7,6,13,36)          -60.7877         estimate D2E/DX2                !
 ! D49   D(7,6,13,37)          177.8937         estimate D2E/DX2                !
 ! D50   D(14,6,13,35)         -60.4428         estimate D2E/DX2                !
 ! D51   D(14,6,13,36)         179.9479         estimate D2E/DX2                !
 ! D52   D(14,6,13,37)          58.6293         estimate D2E/DX2                !
 ! D53   D(5,6,14,38)          -57.0836         estimate D2E/DX2                !
 ! D54   D(5,6,14,39)         -177.3981         estimate D2E/DX2                !
 ! D55   D(5,6,14,40)           63.3797         estimate D2E/DX2                !
 ! D56   D(7,6,14,38)           64.1175         estimate D2E/DX2                !
 ! D57   D(7,6,14,39)          -56.197          estimate D2E/DX2                !
 ! D58   D(7,6,14,40)         -175.4192         estimate D2E/DX2                !
 ! D59   D(13,6,14,38)        -177.4782         estimate D2E/DX2                !
 ! D60   D(13,6,14,39)          62.2073         estimate D2E/DX2                !
 ! D61   D(13,6,14,40)         -57.0149         estimate D2E/DX2                !
 ! D62   D(6,7,8,9)            -30.6568         estimate D2E/DX2                !
 ! D63   D(6,7,8,25)          -152.852          estimate D2E/DX2                !
 ! D64   D(6,7,8,26)            90.7889         estimate D2E/DX2                !
 ! D65   D(23,7,8,9)            91.3835         estimate D2E/DX2                !
 ! D66   D(23,7,8,25)          -30.8117         estimate D2E/DX2                !
 ! D67   D(23,7,8,26)         -147.1709         estimate D2E/DX2                !
 ! D68   D(24,7,8,9)          -151.7294         estimate D2E/DX2                !
 ! D69   D(24,7,8,25)           86.0754         estimate D2E/DX2                !
 ! D70   D(24,7,8,26)          -30.2838         estimate D2E/DX2                !
 ! D71   D(7,8,9,10)           -26.8691         estimate D2E/DX2                !
 ! D72   D(7,8,9,27)          -148.0114         estimate D2E/DX2                !
 ! D73   D(7,8,9,28)            94.6808         estimate D2E/DX2                !
 ! D74   D(25,8,9,10)           94.7342         estimate D2E/DX2                !
 ! D75   D(25,8,9,27)          -26.4081         estimate D2E/DX2                !
 ! D76   D(25,8,9,28)         -143.716          estimate D2E/DX2                !
 ! D77   D(26,8,9,10)         -148.9398         estimate D2E/DX2                !
 ! D78   D(26,8,9,27)           89.918          estimate D2E/DX2                !
 ! D79   D(26,8,9,28)          -27.3899         estimate D2E/DX2                !
 ! D80   D(8,9,10,5)            62.2936         estimate D2E/DX2                !
 ! D81   D(8,9,10,11)          178.275          estimate D2E/DX2                !
 ! D82   D(8,9,10,12)          -62.9318         estimate D2E/DX2                !
 ! D83   D(27,9,10,5)         -175.389          estimate D2E/DX2                !
 ! D84   D(27,9,10,11)         -59.4076         estimate D2E/DX2                !
 ! D85   D(27,9,10,12)          59.3856         estimate D2E/DX2                !
 ! D86   D(28,9,10,5)          -60.6713         estimate D2E/DX2                !
 ! D87   D(28,9,10,11)          55.3102         estimate D2E/DX2                !
 ! D88   D(28,9,10,12)         174.1034         estimate D2E/DX2                !
 ! D89   D(5,10,11,29)          44.7302         estimate D2E/DX2                !
 ! D90   D(5,10,11,30)         -75.6483         estimate D2E/DX2                !
 ! D91   D(5,10,11,31)         165.4421         estimate D2E/DX2                !
 ! D92   D(9,10,11,29)         -70.643          estimate D2E/DX2                !
 ! D93   D(9,10,11,30)         168.9785         estimate D2E/DX2                !
 ! D94   D(9,10,11,31)          50.0689         estimate D2E/DX2                !
 ! D95   D(12,10,11,29)        168.6994         estimate D2E/DX2                !
 ! D96   D(12,10,11,30)         48.321          estimate D2E/DX2                !
 ! D97   D(12,10,11,31)        -70.5887         estimate D2E/DX2                !
 ! D98   D(5,10,12,32)          51.3648         estimate D2E/DX2                !
 ! D99   D(5,10,12,33)         -69.7546         estimate D2E/DX2                !
 ! D100  D(5,10,12,34)         170.2265         estimate D2E/DX2                !
 ! D101  D(9,10,12,32)         172.3145         estimate D2E/DX2                !
 ! D102  D(9,10,12,33)          51.1951         estimate D2E/DX2                !
 ! D103  D(9,10,12,34)         -68.8238         estimate D2E/DX2                !
 ! D104  D(11,10,12,32)        -68.6089         estimate D2E/DX2                !
 ! D105  D(11,10,12,33)        170.2717         estimate D2E/DX2                !
 ! D106  D(11,10,12,34)         50.2528         estimate D2E/DX2                !
 ! D107  D(3,16,17,18)         176.5076         estimate D2E/DX2                !
 ! D108  D(3,16,17,41)          55.4567         estimate D2E/DX2                !
 ! D109  D(3,16,17,42)         -61.981          estimate D2E/DX2                !
 ! D110  D(16,17,18,43)        -60.098          estimate D2E/DX2                !
 ! D111  D(16,17,18,44)       -179.9369         estimate D2E/DX2                !
 ! D112  D(16,17,18,45)         60.1443         estimate D2E/DX2                !
 ! D113  D(41,17,18,43)         58.2584         estimate D2E/DX2                !
 ! D114  D(41,17,18,44)        -61.5805         estimate D2E/DX2                !
 ! D115  D(41,17,18,45)        178.5007         estimate D2E/DX2                !
 ! D116  D(42,17,18,43)       -179.0989         estimate D2E/DX2                !
 ! D117  D(42,17,18,44)         61.0621         estimate D2E/DX2                !
 ! D118  D(42,17,18,45)        -58.8566         estimate D2E/DX2                !
 --------------------------------------------------------------------------------
 Trust Radius=3.00D-01 FncErr=1.00D-07 GrdErr=1.00D-06 EigMax=2.50D+02 EigMin=1.00D-04
 Number of steps in this run=    259 maximum allowed number of steps=    270.
 GradGradGradGradGradGradGradGradGradGradGradGradGradGradGradGradGradGrad

 Leave Link  103 at Tue Jan  7 17:13:54 2025, MaxMem=  4026531840 cpu:               0.4 elap:               0.1
 (Enter /usr/local/intel/g16/l202.exe)
                          Input orientation:                          
 ---------------------------------------------------------------------
 Center     Atomic      Atomic             Coordinates (Angstroms)
 Number     Number       Type             X           Y           Z
 ---------------------------------------------------------------------
      1          6           0       -1.600008   -2.792390   -1.302171
      2          6           0       -1.205209   -1.335921   -1.081339
      3          6           0       -1.958469   -0.717673    0.093160
      4          8           0        0.232071   -1.348309   -0.822990
      5          7           0        0.674654   -0.133282   -0.137104
      6          6           0        1.350824   -0.472857    1.183714
      7          6           0        2.865645   -0.157378    1.143101
      8          6           0        3.182587    1.282390    0.681906
      9          6           0        2.129073    1.828150   -0.310510
     10          6           0        1.411525    0.730313   -1.124840
     11          6           0        0.363064    1.400945   -2.038345
     12          6           0        2.410457   -0.040703   -2.023131
     13          6           0        1.172399   -1.960637    1.540454
     14          6           0        0.666458    0.381714    2.277148
     15          8           0       -2.104179   -1.238510    1.205739
     16          8           0       -2.513592    0.481276   -0.243993
     17          6           0       -3.212079    1.228949    0.814299
     18          6           0       -3.652035    2.548803    0.200713
     19          1           0       -2.651881   -2.867499   -1.595875
     20          1           0       -1.445589   -3.363875   -0.383704
     21          1           0       -0.981952   -3.219018   -2.096628
     22          1           0       -1.414401   -0.727421   -1.965190
     23          1           0        3.353130   -0.887414    0.488180
     24          1           0        3.274846   -0.325123    2.146355
     25          1           0        4.176280    1.297897    0.220057
     26          1           0        3.232361    1.950622    1.548923
     27          1           0        2.603623    2.516270   -1.019367
     28          1           0        1.364499    2.406732    0.221860
     29          1           0       -0.469131    1.785541   -1.441828
     30          1           0       -0.034434    0.691598   -2.771906
     31          1           0        0.822918    2.226242   -2.595016
     32          1           0        1.911348   -0.896182   -2.484914
     33          1           0        3.283280   -0.407211   -1.478775
     34          1           0        2.764989    0.627242   -2.817072
     35          1           0        1.647766   -2.139136    2.512472
     36          1           0        1.639718   -2.608521    0.794714
     37          1           0        0.115547   -2.224952    1.618026
     38          1           0        0.724077    1.450627    2.050990
     39          1           0        1.149747    0.208514    3.246838
     40          1           0       -0.386394    0.101168    2.361806
     41          1           0       -2.517111    1.369429    1.647662
     42          1           0       -4.056623    0.628682    1.166101
     43          1           0       -2.785952    3.114528   -0.153685
     44          1           0       -4.179236    3.149049    0.949415
     45          1           0       -4.323806    2.377292   -0.644719
 ---------------------------------------------------------------------
                    Distance matrix (angstroms):
                    1          2          3          4          5
     1  C    0.000000
     2  C    1.525102   0.000000
     3  C    2.525845   1.526132   0.000000
     4  O    2.381491   1.460367   2.456725   0.000000
     5  N    3.688133   2.423181   2.707004   1.463766   0.000000
     6  C    4.501918   3.522591   3.492945   2.458635   1.522195
     7  C    5.732774   4.786329   4.968741   3.495646   2.537705
     8  C    6.588900   5.405307   5.547732   4.229756   2.994100
     9  C    6.019869   4.660790   4.832408   3.735123   2.447983
    10  C    4.637910   3.334443   3.864848   2.408920   1.504792
    11  C    4.688247   3.296328   3.797548   3.008761   2.462856
    12  C    4.916848   3.954441   4.901478   2.809900   2.564894
    13  C    4.056916   3.594035   3.666327   2.616301   2.530055
    14  C    5.293707   4.211038   3.587297   3.576664   2.468583
    15  O    2.993049   2.459342   1.237067   3.096104   3.278211
    16  O    3.559672   2.390652   1.363566   3.349819   3.248695
    17  C    4.821762   3.768226   2.425060   4.602732   4.227001
    18  C    5.915895   4.766728   3.680978   5.596582   5.101758
    19  H    1.094687   2.168718   2.820534   3.349995   4.546404
    20  H    1.092713   2.158026   2.737303   2.658951   3.872076
    21  H    1.093237   2.150979   3.464893   2.568182   4.013209
    22  H    2.176727   1.093264   2.129063   2.097854   2.838847
    23  H    5.600702   4.841797   5.328971   3.416519   2.852004
    24  H    6.460955   5.613432   5.635361   4.372917   3.465831
    25  H    7.239691   6.131154   6.458620   4.862832   3.799634
    26  H    7.346883   6.116508   6.015294   5.050808   3.705025
    27  H    6.777342   5.417603   5.701648   4.538479   3.394029
    28  H    6.175908   4.723259   4.562958   4.058871   2.656391
    29  H    4.717609   3.227273   3.292476   3.270422   2.586973
    30  H    4.092593   2.887830   3.727809   2.833817   2.850511
    31  H    5.720899   4.369614   4.860971   4.033186   3.410376
    32  H    4.162224   3.446204   4.653366   2.405490   2.761094
    33  H    5.437533   4.600760   5.481177   3.259693   2.946192
    34  H    5.748218   4.757021   5.708704   3.780852   3.482833
    35  H    5.052354   4.658336   4.569306   3.708761   3.462752
    36  H    3.863491   3.637677   4.124856   2.487282   2.815394
    37  H    3.434045   3.133902   2.983060   2.596274   2.787143
    38  H    5.886277   4.615028   3.966192   4.041766   2.701660
    39  H    6.104102   5.163740   4.523772   4.453013   3.434181
    40  H    4.823926   3.819808   2.879006   3.553366   2.724948
    41  H    5.182985   4.060474   2.661682   4.587834   3.953593
    42  H    4.881706   4.128100   2.714060   5.124244   4.966278
    43  H    6.133283   4.813085   3.928285   5.428936   4.745981
    44  H    6.857314   5.751848   4.540542   6.544255   5.959402
    45  H    5.880215   4.868700   3.964605   5.887945   5.616516
                    6          7          8          9         10
     6  C    0.000000
     7  C    1.547856   0.000000
     8  C    2.586128   1.544696   0.000000
     9  C    2.851843   2.568627   1.546815   0.000000
    10  C    2.603982   2.836550   2.589552   1.543779   0.000000
    11  C    3.855965   4.337382   3.919634   2.507330   1.543862
    12  C    3.404913   3.200911   3.108695   2.550463   1.548954
    13  C    1.540321   2.505337   3.910906   4.323910   3.795021
    14  C    1.547335   2.532411   3.112382   3.305661   3.500024
    15  O    3.538892   5.086445   5.880411   5.442778   4.654894
    16  O    4.228762   5.591789   5.826279   4.834546   4.030441
    17  C    4.883922   6.242495   6.396260   5.491097   5.038513
    18  C    5.926662   7.119808   6.967597   5.848239   5.541086
    19  H    5.429740   6.729773   7.513380   6.823401   5.447696
    20  H    4.316794   5.585651   6.644044   6.304022   5.047253
    21  H    4.872770   5.888420   6.732482   6.192140   4.719144
    22  H    4.198436   5.320265   5.672632   4.671736   3.288926
    23  H    2.159827   1.095224   2.185100   3.083911   2.998117
    24  H    2.156470   1.096404   2.176516   3.462018   3.909812
    25  H    3.470937   2.165087   1.095888   2.180304   3.126463
    26  H    3.089791   2.177805   1.095778   2.165580   3.457399
    27  H    3.918922   3.448669   2.179906   1.095986   2.149852
    28  H    3.036014   3.110753   2.186603   1.096699   2.150859
    29  H    3.912297   4.645161   4.254227   2.834142   2.179646
    30  H    4.349922   4.945553   4.756793   3.468571   2.192059
    31  H    4.673609   4.881383   4.146940   2.661482   2.178458
    32  H    3.735267   3.823481   4.048577   3.492481   2.178327
    33  H    3.290523   2.666659   2.744710   2.773784   2.218715
    34  H    4.383648   4.038407   3.584195   2.851214   2.169363
    35  H    2.151803   2.699217   4.172947   4.892877   4.638921
    36  H    2.189941   2.762675   4.187166   4.598373   3.858053
    37  H    2.187321   3.473248   4.752316   4.919469   4.235146
    38  H    2.201084   2.827765   2.819036   2.773665   3.328263
    39  H    2.182013   2.739323   3.444492   4.029519   4.410484
    40  H    2.176082   3.482506   4.117642   4.056022   3.973039
    41  H    4.309314   5.617809   5.781593   5.062795   4.850713
    42  H    5.518531   6.966794   7.284775   6.471626   5.929535
    43  H    5.636567   6.657895   6.299079   5.082995   4.924067
    44  H    6.614731   7.784621   7.599501   6.567111   6.435016
    45  H    6.608172   7.830010   7.700953   6.484821   5.986408
                   11         12         13         14         15
    11  C    0.000000
    12  C    2.504076   0.000000
    13  C    4.976249   4.232974   0.000000
    14  C    4.444588   4.659653   2.507051   0.000000
    15  O    4.855728   5.678229   3.371864   3.383707   0.000000
    16  O    3.512925   5.261564   4.767989   4.059407   2.286265
    17  C    4.576987   6.424635   5.470321   4.230932   2.732951
    18  C    4.738352   6.957358   6.738332   5.259015   4.213036
    19  H    5.244548   5.813827   5.028327   6.047236   3.286734
    20  H    5.358411   5.347923   3.539113   5.056710   2.734455
    21  H    4.812123   4.649250   4.410569   5.900207   4.010914
    22  H    2.773928   3.886448   4.527902   4.853616   3.285087
    23  H    4.534359   2.812870   2.648523   3.468328   5.515467
    24  H    5.382332   4.267631   2.731722   2.705626   5.536510
    25  H    4.433014   3.153074   4.624369   4.170116   6.844640
    26  H    4.626392   4.171387   4.420573   3.094453   6.226315
    27  H    2.702290   2.753719   5.351989   4.379035   6.419725
    28  H    2.668896   3.481946   4.566126   2.968530   5.127137
    29  H    1.093753   3.459062   5.061865   4.134135   4.339110
    30  H    1.095121   2.659778   5.204541   5.106880   4.881682
    31  H    1.096569   2.826017   5.895270   5.211981   5.917613
    32  H    2.805958   1.092794   4.228794   5.085273   5.464665
    33  H    3.479972   1.092003   3.998086   4.645118   6.076380
    34  H    2.640885   1.096442   5.312391   5.514997   6.585806
    35  H    5.906993   5.055375   1.096656   2.715332   4.073791
    36  H    5.072661   3.889470   1.092826   3.476543   4.007822
    37  H    5.155331   4.826549   1.092161   2.744568   2.463784
    38  H    4.105540   4.654719   3.478270   1.094094   3.993111
    39  H    5.474844   5.424396   2.759977   1.097208   4.104631
    40  H    4.648918   5.202901   2.712102   1.092873   2.466174
    41  H    4.677932   6.304294   4.971249   3.392189   2.677154
    42  H    5.513483   7.241713   5.846998   4.858283   2.701854
    43  H    4.050261   6.360266   6.655520   5.029548   4.611051
    44  H    5.710960   7.901557   7.422817   5.736006   4.860271
    45  H    4.986201   7.286770   7.334908   6.117383   4.628711
                   16         17         18         19         20
    16  O    0.000000
    17  C    1.472033   0.000000
    18  C    2.401767   1.520547   0.000000
    19  H    3.614001   4.785775   5.793476   0.000000
    20  H    3.993161   5.064556   6.337958   1.780699   0.000000
    21  H    4.412522   5.764666   6.758319   1.778477   1.780464
    22  H    2.373118   3.845073   4.520153   2.499537   3.074567
    23  H    6.068593   6.905600   7.807853   6.657641   5.469986
    24  H    6.314274   6.802184   7.747687   7.456142   6.157737
    25  H    6.755487   7.412538   7.927651   8.201946   7.328169
    26  H    6.195926   6.526200   7.040625   8.229723   7.339083
    27  H    5.561321   6.232328   6.373610   7.545704   7.167726
    28  H    4.354766   4.762691   5.018590   6.874080   6.446953
    29  H    2.704762   3.594950   3.662156   5.141878   5.346923
    30  H    3.546943   4.821518   5.037133   4.571788   4.913423
    31  H    4.438977   5.375800   5.286336   6.246496   6.425374
    32  H    5.147738   6.453719   7.073312   5.049707   4.666221
    33  H    5.993148   7.079894   7.723813   6.425953   5.683594
    34  H    5.874135   7.019562   7.346946   6.561023   6.291205
    35  H    5.637514   6.151901   7.443715   5.991326   4.410971
    36  H    5.279748   6.185992   7.413061   4.919330   3.387971
    37  H    4.207512   4.862973   6.244372   4.289602   2.782304
    38  H    4.085228   4.131812   4.876461   6.583535   5.815034
    39  H    5.067579   5.097456   6.149223   6.882303   5.716517
    40  H    3.385209   3.413380   4.617970   5.441383   4.546014
    41  H    2.089782   1.094170   2.184637   5.337626   5.261062
    42  H    2.095480   1.094230   2.186900   4.671733   5.015965
    43  H    2.648840   2.161940   1.093500   6.154879   6.619606
    44  H    3.363868   2.154166   1.094893   6.708961   7.188060
    45  H    2.651855   2.164108   1.093365   5.586400   6.427539
                   21         22         23         24         25
    21  H    0.000000
    22  H    2.532261   0.000000
    23  H    5.559725   5.364138   0.000000
    24  H    6.670672   6.249455   1.752668   0.000000
    25  H    7.237189   6.335056   2.350542   2.675332   0.000000
    26  H    7.601030   6.411965   3.032195   2.353241   1.755824
    27  H    6.849114   5.249822   3.797305   4.306489   2.343897
    28  H    6.521525   4.725292   3.857069   3.849174   3.022521
    29  H    5.073200   2.735401   5.047702   5.598868   4.957772
    30  H    4.080038   2.137455   4.959539   6.014511   5.200919
    31  H    5.758194   3.758511   5.059933   5.916250   4.475656
    32  H    3.730619   3.370341   3.304255   4.861470   4.154608
    33  H    5.145892   4.733639   2.025928   3.626069   2.567269
    34  H    5.417778   4.475278   3.683040   5.079622   3.415505
    35  H    5.415290   5.605289   2.927940   2.464158   4.843733
    36  H    3.950407   4.525842   2.447847   3.116807   4.693025
    37  H    3.998916   4.174060   3.680693   3.724198   5.554668
    38  H    6.474477   5.044471   3.849770   3.109470   3.910671
    39  H    6.696622   5.883542   3.696775   2.451913   4.416793
    40  H    5.590703   4.523964   4.297884   3.692265   5.180467
    41  H    6.118028   4.320353   6.395113   6.055326   6.844316
    42  H    5.907944   4.315708   7.593587   7.457954   8.314057
    43  H    6.866094   4.463550   7.356348   7.338573   7.205033
    44  H    7.749405   5.582674   8.558172   8.310588   8.589143
    45  H    6.677927   4.455056   8.418855   8.534205   8.611875
                   26         27         28         29         30
    26  H    0.000000
    27  H    2.703957   0.000000
    28  H    2.336245   1.757291   0.000000
    29  H    4.761605   3.186574   2.552633   0.000000
    30  H    5.561174   3.655156   3.723081   1.776170   0.000000
    31  H    4.801418   2.395349   2.874139   1.787023   1.766770
    32  H    5.110891   3.777817   4.305219   3.734481   2.527742
    33  H    3.837828   3.036401   3.806856   4.346276   3.726499
    34  H    4.586031   2.612701   3.789863   3.700336   2.800527
    35  H    4.490600   5.921178   5.098241   5.959935   6.226355
    36  H    4.887855   5.521185   5.055361   5.362569   5.139489
    37  H    5.211019   5.968714   4.996164   5.078249   5.272595
    38  H    2.606445   3.754381   2.161017   3.706169   4.940829
    39  H    3.202364   5.063595   3.745500   5.204937   6.153124
    40  H    4.144472   5.119106   3.600086   4.160720   5.179525
    41  H    5.779616   5.886442   4.263309   3.729922   5.114266
    42  H    7.417774   7.259348   5.782873   4.583636   5.629375
    43  H    6.361890   5.491342   4.227086   2.965329   4.505166
    44  H    7.531760   7.091099   5.640334   4.619749   6.088241
    45  H    7.879706   6.938944   5.754011   3.980461   5.075943
                   31         32         33         34         35
    31  H    0.000000
    32  H    3.308524   0.000000
    33  H    3.772857   1.770199   0.000000
    34  H    2.525421   1.777597   1.769112   0.000000
    35  H    6.769293   5.156382   4.648067   6.107788   0.000000
    36  H    5.960903   3.709696   3.565924   4.978092   1.780753
    37  H    6.169540   4.671686   4.788412   5.901241   1.776258
    38  H    4.711340   5.243239   4.739232   5.342407   3.735313
    39  H    6.189128   5.886711   5.221350   6.289304   2.509736
    40  H    5.527066   5.455733   5.336199   6.085125   3.029764
    41  H    5.467197   6.467026   6.824631   6.955952   5.513994
    42  H    6.364599   7.160433   7.870363   7.899371   6.481789
    43  H    4.446694   6.601898   7.141014   6.640269   7.373414
    44  H    6.199686   8.077978   8.615813   8.292659   8.022593
    45  H    5.505928   7.278674   8.143517   7.617927   8.125617
                   36         37         38         39         40
    36  H    0.000000
    37  H    1.774279   0.000000
    38  H    4.346644   3.750686   0.000000
    39  H    3.766785   3.105536   1.775976   0.000000
    40  H    3.728716   2.493188   1.775047   1.776101   0.000000
    41  H    5.816428   4.455484   3.267195   4.165445   2.580396
    42  H    6.562447   5.074886   4.930894   5.622481   3.895967
    43  H    7.296527   6.329905   4.466482   5.958037   4.600643
    44  H    8.187415   6.911736   5.304770   6.505610   5.066565
    45  H    7.905309   6.782958   5.797127   7.057450   5.451894
                   41         42         43         44         45
    41  H    0.000000
    42  H    1.775022   0.000000
    43  H    2.522399   3.088020   0.000000
    44  H    2.533230   2.532634   1.777431   0.000000
    45  H    3.087871   2.531421   1.774719   1.777012   0.000000
 Stoichiometry    C14H27NO3
 Framework group  C1[X(C14H27NO3)]
 Deg. of freedom   129
 Full point group                 C1      NOp   1
 Largest Abelian subgroup         C1      NOp   1
 Largest concise Abelian subgroup C1      NOp   1
                         Standard orientation:                         
 ---------------------------------------------------------------------
 Center     Atomic      Atomic             Coordinates (Angstroms)
 Number     Number       Type             X           Y           Z
 ---------------------------------------------------------------------
      1          6           0       -1.600008    2.792390    1.302171
      2          6           0       -1.205209    1.335921    1.081339
      3          6           0       -1.958469    0.717673   -0.093160
      4          8           0        0.232071    1.348309    0.822990
      5          7           0        0.674654    0.133282    0.137104
      6          6           0        1.350824    0.472857   -1.183714
      7          6           0        2.865645    0.157378   -1.143101
      8          6           0        3.182587   -1.282390   -0.681906
      9          6           0        2.129073   -1.828150    0.310510
     10          6           0        1.411525   -0.730313    1.124840
     11          6           0        0.363064   -1.400945    2.038345
     12          6           0        2.410457    0.040703    2.023131
     13          6           0        1.172399    1.960637   -1.540454
     14          6           0        0.666458   -0.381714   -2.277148
     15          8           0       -2.104179    1.238510   -1.205739
     16          8           0       -2.513592   -0.481276    0.243993
     17          6           0       -3.212079   -1.228949   -0.814299
     18          6           0       -3.652035   -2.548803   -0.200713
     19          1           0       -2.651881    2.867499    1.595875
     20          1           0       -1.445589    3.363875    0.383704
     21          1           0       -0.981952    3.219018    2.096628
     22          1           0       -1.414401    0.727421    1.965190
     23          1           0        3.353130    0.887414   -0.488180
     24          1           0        3.274846    0.325123   -2.146355
     25          1           0        4.176280   -1.297897   -0.220057
     26          1           0        3.232361   -1.950622   -1.548923
     27          1           0        2.603623   -2.516270    1.019367
     28          1           0        1.364499   -2.406732   -0.221860
     29          1           0       -0.469131   -1.785541    1.441828
     30          1           0       -0.034434   -0.691598    2.771906
     31          1           0        0.822918   -2.226242    2.595016
     32          1           0        1.911348    0.896182    2.484914
     33          1           0        3.283280    0.407211    1.478775
     34          1           0        2.764989   -0.627242    2.817072
     35          1           0        1.647766    2.139136   -2.512472
     36          1           0        1.639718    2.608521   -0.794714
     37          1           0        0.115547    2.224952   -1.618026
     38          1           0        0.724077   -1.450627   -2.050990
     39          1           0        1.149747   -0.208514   -3.246838
     40          1           0       -0.386394   -0.101168   -2.361806
     41          1           0       -2.517111   -1.369429   -1.647662
     42          1           0       -4.056623   -0.628682   -1.166101
     43          1           0       -2.785952   -3.114528    0.153685
     44          1           0       -4.179236   -3.149049   -0.949415
     45          1           0       -4.323806   -2.377292    0.644719
 ---------------------------------------------------------------------
 Rotational constants (GHZ):           0.5426427           0.3260538           0.3043464
 Leave Link  202 at Tue Jan  7 17:13:54 2025, MaxMem=  4026531840 cpu:               0.1 elap:               0.0
 (Enter /usr/local/intel/g16/l301.exe)
 Standard basis: def2TZVP (5D, 7F)
 Ernie: Thresh=  0.10000D-02 Tol=  0.10000D-05 Strict=F.
 There are   810 symmetry adapted cartesian basis functions of A   symmetry.
 There are   720 symmetry adapted basis functions of A   symmetry.
   720 basis functions,  1134 primitive gaussians,   810 cartesian basis functions
    71 alpha electrons       71 beta electrons
       nuclear repulsion energy      1579.2641753497 Hartrees.
 IExCor= 4336 DFT=T Ex+Corr=M062X ExCW=0 ScaHFX=  0.540000
 ScaDFX=  1.000000  1.000000  1.000000  1.000000 ScalE2=  1.000000  1.000000
 IRadAn=      5 IRanWt=     -1 IRanGd=            0 ICorTp=0 IEmpDi=  4
 NAtoms=   45 NActive=   45 NUniq=   45 SFac= 1.00D+00 NAtFMM=   60 NAOKFM=F Big=F
 Integral buffers will be    131072 words long.
 Raffenetti 2 integral format.
 Two-electron integral symmetry is turned on.
 Leave Link  301 at Tue Jan  7 17:13:54 2025, MaxMem=  4026531840 cpu:               1.2 elap:               0.1
 (Enter /usr/local/intel/g16/l302.exe)
 NPDir=0 NMtPBC=     1 NCelOv=     1 NCel=       1 NClECP=     1 NCelD=      1
         NCelK=      1 NCelE2=     1 NClLst=     1 CellRange=     0.0.
 One-electron integrals computed using PRISM.
 One-electron integral symmetry used in STVInt
   1 Symmetry operations used in ECPInt.
 ECPInt:  NShTT=   46971 NPrTT=  136980 LenC2=   43635 LenP2D=   93275.
 LDataN:  DoStor=T MaxTD1= 6 Len=  172
 NBasis=   720 RedAO= T EigKep=  3.06D-05  NBF=   720
 NBsUse=   720 1.00D-06 EigRej= -1.00D+00 NBFU=   720
 Precomputing XC quadrature grid using
 IXCGrd= 4 IRadAn=           5 IRanWt=          -1 IRanGd=           0 AccXCQ= 0.00D+00.
 Generated NRdTot=       0 NPtTot=           0 NUsed=           0 NTot=          32
 NSgBfM=   801   800   801   801   801 MxSgAt=    45 MxSgA2=    45.
 Leave Link  302 at Tue Jan  7 17:13:56 2025, MaxMem=  4026531840 cpu:              35.6 elap:               1.8
 (Enter /usr/local/intel/g16/l303.exe)
 DipDrv:  MaxL=1.
 Leave Link  303 at Tue Jan  7 17:13:57 2025, MaxMem=  4026531840 cpu:               4.6 elap:               0.3
 (Enter /usr/local/intel/g16/l401.exe)
 ExpMin= 9.52D-02 ExpMax= 2.70D+04 ExpMxC= 9.22D+02 IAcc=3 IRadAn=         5 AccDes= 0.00D+00
 Harris functional with IExCor= 1009 and IRadAn=       5 diagonalized for initial guess.
 HarFok:  IExCor= 1009 AccDes= 0.00D+00 IRadAn=         5 IDoV= 1 UseB2=F ITyADJ=14
 ICtDFT=  3500011 ScaDFX=  1.000000  1.000000  1.000000  1.000000
 FoFCou: FMM=F IPFlag=           0 FMFlag=      100000 FMFlg1=           0
         NFxFlg=           0 DoJE=T BraDBF=F KetDBF=T FulRan=T
         wScrn=  0.000000 ICntrl=       500 IOpCl=  0 I1Cent=   200000004 NGrid=           0
         NMat0=    1 NMatS0=      1 NMatT0=    0 NMatD0=    1 NMtDS0=    0 NMtDT0=    0
 Petite list used in FoFCou.
 Harris En= -829.790923284908    
 JPrj=0 DoOrth=F DoCkMO=F.
 Leave Link  401 at Tue Jan  7 17:14:03 2025, MaxMem=  4026531840 cpu:             110.2 elap:               5.6
 (Enter /usr/local/intel/g16/l502.exe)
 Integral symmetry usage will be decided dynamically.
 Closed shell SCF:
 Using DIIS extrapolation, IDIIS=  1040.
 NGot=  4026531840 LenX=  4025194958 LenY=  4024538048
 Requested convergence on RMS density matrix=1.00D-08 within 128 cycles.
 Requested convergence on MAX density matrix=1.00D-06.
 Requested convergence on             energy=1.00D-06.
 No special actions if energy rises.
 Fock matrices will be formed incrementally for  20 cycles.
 Integral accuracy reduced to 1.0D-05 until final iterations.

 Cycle   1  Pass 0  IDiag  1:
 FoFJK:  IHMeth= 1 ICntrl=       0 DoSepK=F KAlg= 0 I1Cent=           0 FoldK=F
 IRaf= 870000000 NMat=       1 IRICut=       1 DoRegI=T DoRafI=F ISym2E= 0 IDoP0=0 IntGTp=1.
 FoFCou: FMM=F IPFlag=           0 FMFlag=      100000 FMFlg1=           0
         NFxFlg=           0 DoJE=F BraDBF=F KetDBF=F FulRan=T
         wScrn=  0.000000 ICntrl=         0 IOpCl=  0 I1Cent=           0 NGrid=           0
         NMat0=    1 NMatS0=      1 NMatT0=    0 NMatD0=    1 NMtDS0=    0 NMtDT0=    0
 Symmetry not used in FoFCou.
 E= -829.441653610211    
 DIIS: error= 2.08D-02 at cycle   1 NSaved=   1.
 NSaved= 1 IEnMin= 1 EnMin= -829.441653610211     IErMin= 1 ErrMin= 2.08D-02
 ErrMax= 2.08D-02  0.00D+00 EMaxC= 1.00D-01 BMatC= 7.59D-01 BMatP= 7.59D-01
 IDIUse=3 WtCom= 7.92D-01 WtEn= 2.08D-01
 Coeff-Com:  0.100D+01
 Coeff-En:   0.100D+01
 Coeff:      0.100D+01
 Gap=     0.302 Goal=   None    Shift=    0.000
 GapD=    0.302 DampG=1.000 DampE=0.500 DampFc=0.5000 IDamp=-1.
 Damping current iteration by 5.00D-01
 RMSDP=2.01D-03 MaxDP=1.07D-01              OVMax= 1.65D-01

 Cycle   2  Pass 0  IDiag  1:
 RMSU=  9.96D-04    CP:  9.74D-01
 E= -829.753847744809     Delta-E=       -0.312194134598 Rises=F Damp=T
 DIIS: error= 5.33D-03 at cycle   2 NSaved=   2.
 NSaved= 2 IEnMin= 2 EnMin= -829.753847744809     IErMin= 2 ErrMin= 5.33D-03
 ErrMax= 5.33D-03  0.00D+00 EMaxC= 1.00D-01 BMatC= 5.75D-02 BMatP= 7.59D-01
 IDIUse=3 WtCom= 9.47D-01 WtEn= 5.33D-02
 Coeff-Com: -0.595D-01 0.106D+01
 Coeff-En:   0.000D+00 0.100D+01
 Coeff:     -0.563D-01 0.106D+01
 Gap=     0.350 Goal=   None    Shift=    0.000
 RMSDP=8.01D-04 MaxDP=4.09D-02 DE=-3.12D-01 OVMax= 9.34D-02

 Cycle   3  Pass 0  IDiag  1:
 RMSU=  7.86D-04    CP:  9.68D-01  1.15D+00
 E= -830.045830205124     Delta-E=       -0.291982460314 Rises=F Damp=F
 DIIS: error= 4.78D-03 at cycle   3 NSaved=   3.
 NSaved= 3 IEnMin= 3 EnMin= -830.045830205124     IErMin= 3 ErrMin= 4.78D-03
 ErrMax= 4.78D-03  0.00D+00 EMaxC= 1.00D-01 BMatC= 3.51D-02 BMatP= 5.75D-02
 IDIUse=3 WtCom= 9.52D-01 WtEn= 4.78D-02
 Coeff-Com: -0.835D-01 0.482D+00 0.601D+00
 Coeff-En:   0.000D+00 0.000D+00 0.100D+01
 Coeff:     -0.795D-01 0.459D+00 0.620D+00
 Gap=     0.309 Goal=   None    Shift=    0.000
 RMSDP=2.52D-04 MaxDP=2.61D-02 DE=-2.92D-01 OVMax= 4.51D-02

 Cycle   4  Pass 0  IDiag  1:
 RMSU=  2.37D-04    CP:  9.68D-01  1.19D+00  9.01D-01
 E= -830.064778628425     Delta-E=       -0.018948423301 Rises=F Damp=F
 DIIS: error= 2.20D-03 at cycle   4 NSaved=   4.
 NSaved= 4 IEnMin= 4 EnMin= -830.064778628425     IErMin= 4 ErrMin= 2.20D-03
 ErrMax= 2.20D-03  0.00D+00 EMaxC= 1.00D-01 BMatC= 8.87D-03 BMatP= 3.51D-02
 IDIUse=3 WtCom= 9.78D-01 WtEn= 2.20D-02
 Coeff-Com: -0.319D-01 0.909D-01 0.358D+00 0.583D+00
 Coeff-En:   0.000D+00 0.000D+00 0.212D+00 0.788D+00
 Coeff:     -0.312D-01 0.889D-01 0.355D+00 0.587D+00
 Gap=     0.306 Goal=   None    Shift=    0.000
 RMSDP=1.01D-04 MaxDP=8.83D-03 DE=-1.89D-02 OVMax= 1.74D-02

 Cycle   5  Pass 0  IDiag  1:
 RMSU=  5.90D-05    CP:  9.66D-01  1.19D+00  9.29D-01  6.69D-01
 E= -830.071078936177     Delta-E=       -0.006300307752 Rises=F Damp=F
 DIIS: error= 3.73D-04 at cycle   5 NSaved=   5.
 NSaved= 5 IEnMin= 5 EnMin= -830.071078936177     IErMin= 5 ErrMin= 3.73D-04
 ErrMax= 3.73D-04  0.00D+00 EMaxC= 1.00D-01 BMatC= 2.48D-04 BMatP= 8.87D-03
 IDIUse=3 WtCom= 9.96D-01 WtEn= 3.73D-03
 Coeff-Com: -0.984D-02 0.202D-01 0.130D+00 0.261D+00 0.598D+00
 Coeff-En:   0.000D+00 0.000D+00 0.000D+00 0.000D+00 0.100D+01
 Coeff:     -0.980D-02 0.201D-01 0.130D+00 0.260D+00 0.600D+00
 Gap=     0.308 Goal=   None    Shift=    0.000
 RMSDP=2.37D-05 MaxDP=1.46D-03 DE=-6.30D-03 OVMax= 2.97D-03

 Cycle   6  Pass 0  IDiag  1:
 RMSU=  1.78D-05    CP:  9.67D-01  1.19D+00  9.38D-01  6.90D-01  7.83D-01
 E= -830.071261665956     Delta-E=       -0.000182729780 Rises=F Damp=F
 DIIS: error= 8.60D-05 at cycle   6 NSaved=   6.
 NSaved= 6 IEnMin= 6 EnMin= -830.071261665956     IErMin= 6 ErrMin= 8.60D-05
 ErrMax= 8.60D-05  0.00D+00 EMaxC= 1.00D-01 BMatC= 2.43D-05 BMatP= 2.48D-04
 IDIUse=1 WtCom= 1.00D+00 WtEn= 0.00D+00
 Coeff-Com: -0.499D-03-0.163D-02 0.165D-01 0.482D-01 0.270D+00 0.667D+00
 Coeff:     -0.499D-03-0.163D-02 0.165D-01 0.482D-01 0.270D+00 0.667D+00
 Gap=     0.308 Goal=   None    Shift=    0.000
 RMSDP=9.12D-06 MaxDP=5.27D-04 DE=-1.83D-04 OVMax= 6.70D-04

 Initial convergence to 1.0D-05 achieved.  Increase integral accuracy.
 Cycle   7  Pass 1  IDiag  1:
 E= -830.071366926629     Delta-E=       -0.000105260673 Rises=F Damp=F
 DIIS: error= 1.48D-04 at cycle   1 NSaved=   1.
 NSaved= 1 IEnMin= 1 EnMin= -830.071366926629     IErMin= 1 ErrMin= 1.48D-04
 ErrMax= 1.48D-04  0.00D+00 EMaxC= 1.00D-01 BMatC= 1.88D-05 BMatP= 1.88D-05
 IDIUse=3 WtCom= 9.99D-01 WtEn= 1.48D-03
 Coeff-Com:  0.100D+01
 Coeff-En:   0.100D+01
 Coeff:      0.100D+01
 Gap=     0.308 Goal=   None    Shift=    0.000
 RMSDP=9.12D-06 MaxDP=5.27D-04 DE=-1.05D-04 OVMax= 4.33D-04

 Cycle   8  Pass 1  IDiag  1:
 RMSU=  1.45D-04    CP:  1.00D+00
 E= -830.071376266458     Delta-E=       -0.000009339828 Rises=F Damp=F
 DIIS: error= 2.23D-05 at cycle   2 NSaved=   2.
 NSaved= 2 IEnMin= 2 EnMin= -830.071376266458     IErMin= 2 ErrMin= 2.23D-05
 ErrMax= 2.23D-05  0.00D+00 EMaxC= 1.00D-01 BMatC= 1.28D-06 BMatP= 1.88D-05
 IDIUse=1 WtCom= 1.00D+00 WtEn= 0.00D+00
 Coeff-Com:  0.912D-01 0.909D+00
 Coeff:      0.912D-01 0.909D+00
 Gap=     0.309 Goal=   None    Shift=    0.000
 RMSDP=5.46D-06 MaxDP=2.73D-04 DE=-9.34D-06 OVMax= 2.61D-04

 Cycle   9  Pass 1  IDiag  1:
 RMSU=  3.40D-06    CP:  1.00D+00  1.03D+00
 E= -830.071376200095     Delta-E=        0.000000066363 Rises=F Damp=F
 DIIS: error= 2.20D-05 at cycle   3 NSaved=   3.
 NSaved= 3 IEnMin= 2 EnMin= -830.071376266458     IErMin= 3 ErrMin= 2.20D-05
 ErrMax= 2.20D-05  0.00D+00 EMaxC= 1.00D-01 BMatC= 1.50D-06 BMatP= 1.28D-06
 IDIUse=1 WtCom= 1.00D+00 WtEn= 0.00D+00
 Coeff-Com: -0.859D-02 0.522D+00 0.487D+00
 Coeff:     -0.859D-02 0.522D+00 0.487D+00
 Gap=     0.308 Goal=   None    Shift=    0.000
 RMSDP=1.56D-06 MaxDP=9.03D-05 DE= 6.64D-08 OVMax= 1.34D-04

 Cycle  10  Pass 1  IDiag  1:
 RMSU=  9.39D-07    CP:  1.00D+00  1.03D+00  6.88D-01
 E= -830.071377241844     Delta-E=       -0.000001041749 Rises=F Damp=F
 DIIS: error= 2.71D-06 at cycle   4 NSaved=   4.
 NSaved= 4 IEnMin= 4 EnMin= -830.071377241844     IErMin= 4 ErrMin= 2.71D-06
 ErrMax= 2.71D-06  0.00D+00 EMaxC= 1.00D-01 BMatC= 1.03D-08 BMatP= 1.28D-06
 IDIUse=1 WtCom= 1.00D+00 WtEn= 0.00D+00
 Coeff-Com: -0.466D-02 0.179D+00 0.180D+00 0.645D+00
 Coeff:     -0.466D-02 0.179D+00 0.180D+00 0.645D+00
 Gap=     0.308 Goal=   None    Shift=    0.000
 RMSDP=1.85D-07 MaxDP=1.14D-05 DE=-1.04D-06 OVMax= 2.79D-05

 Cycle  11  Pass 1  IDiag  1:
 RMSU=  1.67D-07    CP:  1.00D+00  1.03D+00  6.86D-01  1.04D+00
 E= -830.071377251844     Delta-E=       -0.000000010000 Rises=F Damp=F
 DIIS: error= 1.52D-06 at cycle   5 NSaved=   5.
 NSaved= 5 IEnMin= 5 EnMin= -830.071377251844     IErMin= 5 ErrMin= 1.52D-06
 ErrMax= 1.52D-06  0.00D+00 EMaxC= 1.00D-01 BMatC= 2.53D-09 BMatP= 1.03D-08
 IDIUse=1 WtCom= 1.00D+00 WtEn= 0.00D+00
 Coeff-Com: -0.909D-04-0.383D-01-0.325D-01 0.267D+00 0.803D+00
 Coeff:     -0.909D-04-0.383D-01-0.325D-01 0.267D+00 0.803D+00
 Gap=     0.308 Goal=   None    Shift=    0.000
 RMSDP=1.27D-07 MaxDP=6.21D-06 DE=-1.00D-08 OVMax= 1.36D-05

 Cycle  12  Pass 1  IDiag  1:
 RMSU=  9.76D-08    CP:  1.00D+00  1.03D+00  6.99D-01  1.10D+00  1.06D+00
 E= -830.071377254307     Delta-E=       -0.000000002464 Rises=F Damp=F
 DIIS: error= 9.20D-07 at cycle   6 NSaved=   6.
 NSaved= 6 IEnMin= 6 EnMin= -830.071377254307     IErMin= 6 ErrMin= 9.20D-07
 ErrMax= 9.20D-07  0.00D+00 EMaxC= 1.00D-01 BMatC= 7.57D-10 BMatP= 2.53D-09
 IDIUse=1 WtCom= 1.00D+00 WtEn= 0.00D+00
 Coeff-Com:  0.967D-03-0.599D-01-0.573D-01 0.380D-01 0.468D+00 0.611D+00
 Coeff:      0.967D-03-0.599D-01-0.573D-01 0.380D-01 0.468D+00 0.611D+00
 Gap=     0.308 Goal=   None    Shift=    0.000
 RMSDP=4.01D-08 MaxDP=3.65D-06 DE=-2.46D-09 OVMax= 1.17D-05

 Cycle  13  Pass 1  IDiag  1:
 RMSU=  3.52D-08    CP:  1.00D+00  1.03D+00  7.01D-01  1.12D+00  1.11D+00
                    CP:  1.03D+00
 E= -830.071377255029     Delta-E=       -0.000000000721 Rises=F Damp=F
 DIIS: error= 1.66D-07 at cycle   7 NSaved=   7.
 NSaved= 7 IEnMin= 7 EnMin= -830.071377255029     IErMin= 7 ErrMin= 1.66D-07
 ErrMax= 1.66D-07  0.00D+00 EMaxC= 1.00D-01 BMatC= 4.83D-11 BMatP= 7.57D-10
 IDIUse=1 WtCom= 1.00D+00 WtEn= 0.00D+00
 Coeff-Com:  0.351D-03-0.181D-01-0.180D-01-0.833D-02 0.760D-01 0.240D+00
 Coeff-Com:  0.729D+00
 Coeff:      0.351D-03-0.181D-01-0.180D-01-0.833D-02 0.760D-01 0.240D+00
 Coeff:      0.729D+00
 Gap=     0.308 Goal=   None    Shift=    0.000
 RMSDP=1.53D-08 MaxDP=1.03D-06 DE=-7.21D-10 OVMax= 1.71D-06

 Cycle  14  Pass 1  IDiag  1:
 RMSU=  1.11D-08    CP:  1.00D+00  1.03D+00  7.01D-01  1.12D+00  1.12D+00
                    CP:  1.12D+00  1.02D+00
 E= -830.071377255081     Delta-E=       -0.000000000053 Rises=F Damp=F
 DIIS: error= 5.53D-08 at cycle   8 NSaved=   8.
 NSaved= 8 IEnMin= 8 EnMin= -830.071377255081     IErMin= 8 ErrMin= 5.53D-08
 ErrMax= 5.53D-08  0.00D+00 EMaxC= 1.00D-01 BMatC= 4.02D-12 BMatP= 4.83D-11
 IDIUse=1 WtCom= 1.00D+00 WtEn= 0.00D+00
 Coeff-Com: -0.124D-04 0.203D-02 0.167D-02-0.571D-02-0.414D-01 0.613D-02
 Coeff-Com:  0.233D+00 0.804D+00
 Coeff:     -0.124D-04 0.203D-02 0.167D-02-0.571D-02-0.414D-01 0.613D-02
 Coeff:      0.233D+00 0.804D+00
 Gap=     0.308 Goal=   None    Shift=    0.000
 RMSDP=6.53D-09 MaxDP=2.84D-07 DE=-5.28D-11 OVMax= 8.33D-07

 SCF Done:  E(RM062X) =  -830.071377255     A.U. after   14 cycles
            NFock= 14  Conv=0.65D-08     -V/T= 2.0060
 KE= 8.251244365810D+02 PE=-5.092064716982D+03 EE= 1.857604727796D+03
 Leave Link  502 at Tue Jan  7 17:24:01 2025, MaxMem=  4026531840 cpu:           11955.5 elap:             598.0
 (Enter /usr/local/intel/g16/l601.exe)
 Copying SCF densities to generalized density rwf, IOpCl= 0 IROHF=0.

 **********************************************************************

            Population analysis using the SCF Density.

 **********************************************************************

 Orbital symmetries:
       Occupied  (A) (A) (A) (A) (A) (A) (A) (A) (A) (A) (A) (A)
                 (A) (A) (A) (A) (A) (A) (A) (A) (A) (A) (A) (A)
                 (A) (A) (A) (A) (A) (A) (A) (A) (A) (A) (A) (A)
                 (A) (A) (A) (A) (A) (A) (A) (A) (A) (A) (A) (A)
                 (A) (A) (A) (A) (A) (A) (A) (A) (A) (A) (A) (A)
                 (A) (A) (A) (A) (A) (A) (A) (A) (A) (A) (A)
       Virtual   (A) (A) (A) (A) (A) (A) (A) (A) (A) (A) (A) (A)
                 (A) (A) (A) (A) (A) (A) (A) (A) (A) (A) (A) (A)
                 (A) (A) (A) (A) (A) (A) (A) (A) (A) (A) (A) (A)
                 (A) (A) (A) (A) (A) (A) (A) (A) (A) (A) (A) (A)
                 (A) (A) (A) (A) (A) (A) (A) (A) (A) (A) (A) (A)
                 (A) (A) (A) (A) (A) (A) (A) (A) (A) (A) (A) (A)
                 (A) (A) (A) (A) (A) (A) (A) (A) (A) (A) (A) (A)
                 (A) (A) (A) (A) (A) (A) (A) (A) (A) (A) (A) (A)
                 (A) (A) (A) (A) (A) (A) (A) (A) (A) (A) (A) (A)
                 (A) (A) (A) (A) (A) (A) (A) (A) (A) (A) (A) (A)
                 (A) (A) (A) (A) (A) (A) (A) (A) (A) (A) (A) (A)
                 (A) (A) (A) (A) (A) (A) (A) (A) (A) (A) (A) (A)
                 (A) (A) (A) (A) (A) (A) (A) (A) (A) (A) (A) (A)
                 (A) (A) (A) (A) (A) (A) (A) (A) (A) (A) (A) (A)
                 (A) (A) (A) (A) (A) (A) (A) (A) (A) (A) (A) (A)
                 (A) (A) (A) (A) (A) (A) (A) (A) (A) (A) (A) (A)
                 (A) (A) (A) (A) (A) (A) (A) (A) (A) (A) (A) (A)
                 (A) (A) (A) (A) (A) (A) (A) (A) (A) (A) (A) (A)
                 (A) (A) (A) (A) (A) (A) (A) (A) (A) (A) (A) (A)
                 (A) (A) (A) (A) (A) (A) (A) (A) (A) (A) (A) (A)
                 (A) (A) (A) (A) (A) (A) (A) (A) (A) (A) (A) (A)
                 (A) (A) (A) (A) (A) (A) (A) (A) (A) (A) (A) (A)
                 (A) (A) (A) (A) (A) (A) (A) (A) (A) (A) (A) (A)
                 (A) (A) (A) (A) (A) (A) (A) (A) (A) (A) (A) (A)
                 (A) (A) (A) (A) (A) (A) (A) (A) (A) (A) (A) (A)
                 (A) (A) (A) (A) (A) (A) (A) (A) (A) (A) (A) (A)
                 (A) (A) (A) (A) (A) (A) (A) (A) (A) (A) (A) (A)
                 (A) (A) (A) (A) (A) (A) (A) (A) (A) (A) (A) (A)
                 (A) (A) (A) (A) (A) (A) (A) (A) (A) (A) (A) (A)
                 (A) (A) (A) (A) (A) (A) (A) (A) (A) (A) (A) (A)
                 (A) (A) (A) (A) (A) (A) (A) (A) (A) (A) (A) (A)
                 (A) (A) (A) (A) (A) (A) (A) (A) (A) (A) (A) (A)
                 (A) (A) (A) (A) (A) (A) (A) (A) (A) (A) (A) (A)
                 (A) (A) (A) (A) (A) (A) (A) (A) (A) (A) (A) (A)
                 (A) (A) (A) (A) (A) (A) (A) (A) (A) (A) (A) (A)
                 (A) (A) (A) (A) (A) (A) (A) (A) (A) (A) (A) (A)
                 (A) (A) (A) (A) (A) (A) (A) (A) (A) (A) (A) (A)
                 (A) (A) (A) (A) (A) (A) (A) (A) (A) (A) (A) (A)
                 (A) (A) (A) (A) (A) (A) (A) (A) (A) (A) (A) (A)
                 (A) (A) (A) (A) (A) (A) (A) (A) (A) (A) (A) (A)
                 (A) (A) (A) (A) (A) (A) (A) (A) (A) (A) (A) (A)
                 (A) (A) (A) (A) (A) (A) (A) (A) (A) (A) (A) (A)
                 (A) (A) (A) (A) (A) (A) (A) (A) (A) (A) (A) (A)
                 (A) (A) (A) (A) (A) (A) (A) (A) (A) (A) (A) (A)
                 (A) (A) (A) (A) (A) (A) (A) (A) (A) (A) (A) (A)
                 (A) (A) (A) (A) (A) (A) (A) (A) (A) (A) (A) (A)
                 (A) (A) (A) (A) (A) (A) (A) (A) (A) (A) (A) (A)
                 (A) (A) (A) (A) (A) (A) (A) (A) (A) (A) (A) (A)
                 (A) (A) (A) (A) (A) (A) (A) (A) (A) (A) (A) (A)
                 (A) (A) (A) (A) (A) (A) (A) (A) (A) (A) (A) (A)
                 (A) (A) (A) (A) (A) (A) (A) (A) (A) (A) (A) (A)
                 (A) (A) (A) (A) (A) (A) (A) (A) (A) (A) (A) (A)
                 (A) (A) (A) (A) (A) (A) (A) (A) (A) (A) (A) (A)
                 (A) (A) (A) (A) (A) (A) (A) (A) (A) (A) (A) (A)
                 (A)
 The electronic state is 1-A.
 Alpha  occ. eigenvalues --  -19.67191 -19.65443 -19.61803 -14.78244 -10.67656
 Alpha  occ. eigenvalues --  -10.60354 -10.60028 -10.57549 -10.57250 -10.53882
 Alpha  occ. eigenvalues --  -10.53315 -10.53210 -10.53121 -10.52653 -10.51847
 Alpha  occ. eigenvalues --  -10.51684 -10.51254 -10.50939  -1.21766  -1.17061
 Alpha  occ. eigenvalues --   -1.12564  -0.98353  -0.89956  -0.89163  -0.87209
 Alpha  occ. eigenvalues --   -0.84342  -0.80441  -0.77745  -0.76584  -0.76230
 Alpha  occ. eigenvalues --   -0.75813  -0.70276  -0.68451  -0.65108  -0.64451
 Alpha  occ. eigenvalues --   -0.60251  -0.58684  -0.57493  -0.55748  -0.55244
 Alpha  occ. eigenvalues --   -0.54407  -0.53876  -0.51657  -0.50192  -0.49559
 Alpha  occ. eigenvalues --   -0.49147  -0.48347  -0.47763  -0.47194  -0.46686
 Alpha  occ. eigenvalues --   -0.45961  -0.45019  -0.44811  -0.44578  -0.43935
 Alpha  occ. eigenvalues --   -0.43536  -0.43372  -0.42691  -0.42111  -0.41754
 Alpha  occ. eigenvalues --   -0.41687  -0.40692  -0.40306  -0.38356  -0.38269
 Alpha  occ. eigenvalues --   -0.37502  -0.36265  -0.35821  -0.35273  -0.33287
 Alpha  occ. eigenvalues --   -0.27781
 Alpha virt. eigenvalues --    0.03052   0.05184   0.06996   0.07446   0.08653
 Alpha virt. eigenvalues --    0.09328   0.10052   0.10345   0.10788   0.11322
 Alpha virt. eigenvalues --    0.11912   0.12310   0.13290   0.13533   0.14007
 Alpha virt. eigenvalues --    0.14260   0.14457   0.14994   0.15627   0.15765
 Alpha virt. eigenvalues --    0.16188   0.16425   0.16788   0.17194   0.17524
 Alpha virt. eigenvalues --    0.18219   0.18617   0.18837   0.19765   0.20038
 Alpha virt. eigenvalues --    0.20202   0.20691   0.21415   0.21941   0.22232
 Alpha virt. eigenvalues --    0.22456   0.22586   0.22977   0.23579   0.23891
 Alpha virt. eigenvalues --    0.24511   0.25328   0.25547   0.25738   0.26427
 Alpha virt. eigenvalues --    0.27111   0.27953   0.28286   0.29221   0.29786
 Alpha virt. eigenvalues --    0.30202   0.30842   0.31523   0.32862   0.33144
 Alpha virt. eigenvalues --    0.33968   0.34318   0.34867   0.35397   0.35630
 Alpha virt. eigenvalues --    0.36759   0.37702   0.38398   0.38947   0.39400
 Alpha virt. eigenvalues --    0.39795   0.40423   0.41022   0.41705   0.42153
 Alpha virt. eigenvalues --    0.42490   0.42868   0.42940   0.43675   0.43716
 Alpha virt. eigenvalues --    0.44042   0.45006   0.45345   0.45403   0.45728
 Alpha virt. eigenvalues --    0.46344   0.46758   0.47205   0.47325   0.47835
 Alpha virt. eigenvalues --    0.48183   0.48313   0.48861   0.49132   0.49234
 Alpha virt. eigenvalues --    0.49802   0.50596   0.50752   0.51157   0.51344
 Alpha virt. eigenvalues --    0.52016   0.52145   0.52806   0.53123   0.53262
 Alpha virt. eigenvalues --    0.53795   0.54201   0.54353   0.55334   0.55685
 Alpha virt. eigenvalues --    0.56438   0.57119   0.57780   0.58624   0.58733
 Alpha virt. eigenvalues --    0.59304   0.59789   0.59937   0.60645   0.61657
 Alpha virt. eigenvalues --    0.61830   0.62827   0.63388   0.64453   0.64839
 Alpha virt. eigenvalues --    0.65354   0.67748   0.68213   0.68522   0.68924
 Alpha virt. eigenvalues --    0.69420   0.71465   0.71733   0.72247   0.73014
 Alpha virt. eigenvalues --    0.73737   0.75923   0.76551   0.77636   0.77733
 Alpha virt. eigenvalues --    0.79881   0.81094   0.81380   0.82050   0.83618
 Alpha virt. eigenvalues --    0.83946   0.84504   0.85493   0.86780   0.87649
 Alpha virt. eigenvalues --    0.88189   0.89082   0.89510   0.90774   0.91673
 Alpha virt. eigenvalues --    0.92285   0.92517   0.93356   0.94086   0.94949
 Alpha virt. eigenvalues --    0.95709   0.96342   0.97352   0.98306   0.99257
 Alpha virt. eigenvalues --    0.99728   1.00657   1.01070   1.01603   1.01954
 Alpha virt. eigenvalues --    1.02858   1.03000   1.05071   1.05780   1.06360
 Alpha virt. eigenvalues --    1.07118   1.08133   1.08952   1.10119   1.10744
 Alpha virt. eigenvalues --    1.11423   1.11877   1.12723   1.13370   1.13786
 Alpha virt. eigenvalues --    1.15840   1.16251   1.16834   1.18114   1.19129
 Alpha virt. eigenvalues --    1.19371   1.21205   1.21862   1.22307   1.22529
 Alpha virt. eigenvalues --    1.23750   1.23941   1.24390   1.25690   1.26262
 Alpha virt. eigenvalues --    1.27655   1.29088   1.30427   1.31000   1.31444
 Alpha virt. eigenvalues --    1.32533   1.32851   1.34568   1.35750   1.37214
 Alpha virt. eigenvalues --    1.37793   1.38986   1.40102   1.40944   1.42520
 Alpha virt. eigenvalues --    1.42942   1.45054   1.46546   1.49608   1.50077
 Alpha virt. eigenvalues --    1.51330   1.53060   1.53945   1.54280   1.55168
 Alpha virt. eigenvalues --    1.55663   1.56797   1.57933   1.58599   1.59476
 Alpha virt. eigenvalues --    1.60114   1.60128   1.60997   1.61963   1.62247
 Alpha virt. eigenvalues --    1.62468   1.62923   1.63289   1.64277   1.64474
 Alpha virt. eigenvalues --    1.65259   1.65555   1.65999   1.66462   1.67233
 Alpha virt. eigenvalues --    1.67422   1.67574   1.68436   1.68753   1.69022
 Alpha virt. eigenvalues --    1.69872   1.70213   1.70881   1.71020   1.71737
 Alpha virt. eigenvalues --    1.74158   1.75109   1.75447   1.75811   1.76773
 Alpha virt. eigenvalues --    1.77249   1.78654   1.80157   1.80623   1.81507
 Alpha virt. eigenvalues --    1.81992   1.83037   1.83716   1.84366   1.85095
 Alpha virt. eigenvalues --    1.85607   1.86355   1.87603   1.88931   1.91196
 Alpha virt. eigenvalues --    1.91722   1.93845   1.94273   1.94974   1.95636
 Alpha virt. eigenvalues --    1.95984   1.97168   1.98867   2.00291   2.00528
 Alpha virt. eigenvalues --    2.01364   2.02012   2.02678   2.03929   2.04785
 Alpha virt. eigenvalues --    2.05437   2.06975   2.07500   2.08227   2.09121
 Alpha virt. eigenvalues --    2.09880   2.11135   2.12126   2.13072   2.13345
 Alpha virt. eigenvalues --    2.14404   2.15024   2.16189   2.17635   2.17715
 Alpha virt. eigenvalues --    2.19157   2.19720   2.20299   2.22652   2.22760
 Alpha virt. eigenvalues --    2.23968   2.24558   2.25562   2.26387   2.27287
 Alpha virt. eigenvalues --    2.28974   2.29430   2.30067   2.30177   2.31779
 Alpha virt. eigenvalues --    2.33011   2.33625   2.34468   2.34944   2.35670
[...]
 -0.00001392,-0.00000399,0.00000353,-0.00002173,-0.00000617,0.00001320,
 0.00001874,0.00006451,-0.00003043,0.00104800,0.00109578,-0.00347945,-0
 .02005870,-0.00060346,0.01366017,-0.18639074,-0.12424275,0.04128415,0.
 01244351,0.00980846,-0.00423616,0.00000459,-0.00002120,0.00002247,-0.0
 0001494,0.00006122,0.00001058,0.00001862,0.00007137,0.00000158,0.00008
 796,-0.00001839,-0.00019688,-0.00001281,-0.00000031,0.00000866,-0.0000
 0337,-0.00000320,-0.00000693,-0.00000765,0.00000217,0.00000314,0.00000
 348,0.00000178,-0.00000499,-0.00001138,-0.00000038,0.00000667,0.000003
 72,0.00002025,-0.00000162,0.00001290,0.00007203,-0.00001972,0.00000587
 ,0.00000115,-0.00000811,-0.00003543,0.00000263,0.00001514,0.00000651,0
 .00000094,-0.00000253,-0.00000659,0.00000425,-0.00000257,-0.00000363,-
 0.00000129,0.00000697,-0.00000051,0.00000100,-0.00000890,0.00000534,0.
 00000983,0.00000168,-0.00000349,0.00000233,0.00000134,0.00006923,0.000
 03000,0.00000057,-0.00006238,0.00001376,-0.00001612,-0.00004673,-0.000
 13650,0.00006525,-0.01331400,-0.01394884,0.00320166,0.20399591,0.00022
 907,-0.00005176,-0.00011363,-0.00112062,-0.00062270,-0.00021296,0.0007
 0307,0.00305178,-0.00252157,0.00000278,0.00017452,0.00014999,0.0001505
 5,-0.00003065,-0.00001067,-0.00001419,0.00000631,-0.00009100,-0.000001
 59,0.00000071,0.00001874,-0.00000516,0.00000125,0.00000427,0.00002370,
 -0.00001590,-0.00002871,-0.00001990,-0.00004021,0.00004822,0.00002532,
 0.00001499,-0.00002634,0.00000329,0.00001532,-0.00001491,0.00000424,0.
 00001612,0.00001027,0.00002289,0.00000384,0.00000257,0.00060219,-0.000
 93918,0.00103465,0.01752295,0.00956449,-0.00606176,-0.13081232,-0.1662
 0060,0.04070430,-0.02024329,-0.01805939,0.00585980,-0.00000122,0.00002
 252,-0.00000888,-0.00000164,-0.00003149,-0.00001170,-0.00001649,-0.000
 09552,-0.00000289,-0.00003534,0.00003051,0.00007856,-0.00000669,0.0000
 0345,0.00000221,0.00000767,0.00000182,0.00000141,-0.00000375,0.0000033
 7,-0.00000135,0.00000465,0.00000103,0.00000422,0.00000518,0.00000569,0
 .00000131,-0.00000592,0.00000396,0.00001075,-0.00001167,-0.00005025,0.
 00000662,-0.00001624,0.00001236,0.00002003,0.00001983,0.00000332,-0.00
 000614,-0.00000530,0.00000367,0.00000666,-0.00000105,0.00000150,0.0000
 0045,0.00000676,-0.00000165,-0.00000593,-0.00000271,-0.00000497,0.0000
 0438,-0.00001147,0.00000670,-0.00000116,-0.00001198,-0.00000739,-0.000
 00517,0.00002389,0.00001347,-0.00000420,-0.00002013,0.00001110,0.00000
 825,-0.00005278,-0.00004026,-0.00000259,-0.00274040,-0.00224106,0.0016
 0441,0.13240630,0.17738657,0.00029900,-0.00001714,-0.00001683,-0.00071
 728,-0.00048462,-0.00033174,-0.00148995,0.00476757,-0.00143499,0.00009
 838,0.00014553,0.00015333,0.00018105,-0.00008929,0.00003087,-0.0000548
 3,-0.00005134,-0.00021109,-0.00000670,0.00003477,0.00004962,-0.0000037
 5,0.00000071,-0.00000221,0.00002377,-0.00002514,-0.00002676,-0.0000459
 8,-0.00003210,0.00000702,-0.00001900,0.00006026,0.00002027,0.00001931,
 0.00001070,0.00000278,-0.00002328,-0.00000551,0.00004334,0.00000963,0.
 00009847,0.00002758,0.00014887,-0.00138600,0.00126998,0.03044955,0.009
 09341,-0.01636231,0.03735586,0.03685026,-0.06401077,0.00673803,0.00763
 447,-0.00172144,-0.00001921,0.00000225,-0.00002949,-0.00001898,-0.0000
 3369,0.00000491,-0.00003487,-0.00008966,-0.00002932,-0.00002074,-0.000
 00866,0.00011174,-0.00002547,0.00000221,0.00000402,0.00001821,-0.00000
 152,0.00000864,0.00000021,0.00000276,0.00000147,0.00001099,0.00000542,
 0.00001091,0.00000003,0.00000839,0.00000573,-0.00000626,0.00000718,-0.
 00000572,-0.00002790,-0.00008368,-0.00000976,-0.00000988,0.00000473,0.
 00002619,0.00004141,-0.00000070,-0.00001204,-0.00000984,0.00000441,0.0
 0001002,0.00001169,-0.00000854,-0.00000092,0.00000426,0.00000164,-0.00
 000508,0.00001298,-0.00000857,0.00001304,0.00000461,0.00002375,-0.0000
 0451,-0.00002400,0.00001934,-0.00001246,0.00010376,0.00004158,-0.00001
 720,-0.00005681,0.00002252,0.00001288,-0.00003775,-0.00021011,0.000020
 87,-0.01845909,-0.01568036,0.00754732,-0.05456497,-0.04182929,0.074003
 36,0.00001587,0.00000272,-0.00002328,-0.00003786,-0.00007164,0.0000540
 3,-0.00001112,0.00045363,-0.00053084,0.00002964,-0.00000119,-0.0000192
 0,0.00002393,-0.00002002,-0.00001136,-0.00000389,0.00001122,0.00000953
 ,-0.00000151,-0.00000595,-0.00000077,0.00000732,-0.00000398,-0.0000100
 6,-0.00002544,0.00002935,0.00002232,-0.00000457,-0.00002232,0.00002559
 ,-0.00006667,0.00002083,-0.00000310,-0.00000159,0.00000066,-0.00000559
 ,0.00000385,0.00000118,-0.00000564,0.00000343,0.00000562,0.00000597,-0
 .00025821,0.00004455,0.00024061,0.00140885,-0.00151049,-0.00064377,0.0
 1095204,0.01016532,-0.00333350,-0.20032953,-0.12708348,0.05070786,-0.0
 0000018,0.00000344,0.00000379,0.00000037,-0.00000029,0.00000028,0.0000
 0096,-0.00001222,-0.00000279,-0.00000146,-0.00000937,0.00000522,0.0000
 0423,-0.00000038,-0.00000226,0.00000019,0.00000018,0.00000151,0.000005
 44,-0.00000254,0.00000105,-0.00000276,-0.00000005,0.00000185,0.0000116
 0,-0.00000211,-0.00000761,0.00001726,-0.00002645,-0.00001231,0.0000750
 6,-0.00003239,0.00000567,0.00001695,-0.00001425,-0.00000657,0.00001692
 ,0.00000083,-0.00000668,-0.00000143,-0.00000171,0.00000113,-0.00000025
 ,0.00000004,0.00000152,0.00000354,0.00000153,-0.00000401,-0.00000010,0
 .00000099,0.00000208,-0.00000037,-0.00000308,-0.00000173,-0.00000168,0
 .00000189,-0.00000038,-0.00001984,-0.00002274,-0.00000148,0.00001169,-
 0.00001310,0.00000165,0.00001038,0.00001714,-0.00000784,0.00090047,-0.
 00079066,0.00028342,-0.00030881,0.00310617,-0.00050036,0.21325658,0.00
 001043,0.00000299,-0.00003285,-0.00011707,-0.00004548,0.00004976,0.000
 17291,-0.00072867,0.00082356,0.00005789,0.00007295,-0.00000943,-0.0000
 5395,0.00002928,-0.00004810,0.00002215,0.00000294,0.00004102,-0.000002
 30,-0.00000104,-0.00001339,-0.00000348,-0.00000245,0.00001497,0.000031
 29,-0.00001548,-0.00003483,0.00001556,-0.00004035,0.00009215,0.0001051
 5,-0.00005251,-0.00009223,-0.00002112,0.00001817,-0.00004002,-0.000016
 60,-0.00000427,0.00000117,-0.00002751,-0.00003801,-0.00000350,0.000487
 60,0.00013765,-0.00077808,-0.00089832,0.00301271,-0.00011381,-0.023908
 09,-0.02118435,0.00826428,-0.12451674,-0.14997757,0.04125913,0.0000076
 4,0.00000719,0.00001664,-0.00000758,0.00001895,0.00000225,0.00000553,-
 0.00000725,-0.00000513,0.00001363,-0.00002026,-0.00004838,0.00000149,0
 .00000087,0.00000456,-0.00000373,0.00000262,-0.00000952,-0.00000903,0.
 00000866,-0.00000468,-0.00000033,0.00000098,-0.00000677,-0.00000310,0.
 00000883,0.00000545,0.00001960,0.00001758,0.00001896,0.00005961,-0.000
 01897,-0.00003137,-0.00002889,0.00001855,0.00002378,-0.00002596,0.0000
 1432,0.00001319,-0.00000039,0.00000225,0.00000648,-0.00001844,0.000014
 54,0.00000308,0.00000962,-0.00000274,-0.00000406,0.00000116,0.00000379
 ,-0.00000432,0.00000330,0.00000377,0.00000067,-0.00000459,0.00000751,-
 0.00000165,0.00004542,0.00002127,0.00001371,-0.00000889,0.00001835,-0.
 00000865,-0.00001834,-0.00002130,0.00000838,0.00026782,0.00141324,-0.0
 0035665,0.00338509,-0.00384745,0.00172677,0.13624682,0.16445989,-0.000
 04471,0.00000285,0.00000482,0.00014542,0.00000822,0.00002644,0.0001882
 2,-0.00029629,0.00002340,-0.00008631,-0.00003169,-0.00004777,-0.000014
 69,0.00003143,-0.00002800,0.00000382,0.00001377,0.00010549,-0.00000110
 ,-0.00000916,-0.00001682,0.00000537,-0.00000019,0.00000024,-0.00003607
 ,0.00003479,0.00002046,0.00001688,-0.00000888,0.00007481,0.00003428,-0
 .00002193,-0.00008487,-0.00002561,-0.00000058,-0.00002742,0.00001420,-
 0.00000240,-0.00002828,0.00002912,0.00002215,-0.00004056,-0.00022495,0
 .00015308,-0.00008379,-0.00083786,-0.00081749,0.00056159,0.01039794,0.
 00733893,-0.00442395,0.04921764,0.04208305,-0.06498348,-0.00000266,-0.
 00000621,-0.00000409,0.00000667,0.00000460,-0.00000240,0.00000137,0.00
 001376,0.00000737,-0.00000403,-0.00000215,-0.00001947,0.00001049,-0.00
 000562,-0.00000125,-0.00000798,0.00000206,-0.00000518,0.00000208,-0.00
 000320,-0.00000079,-0.00001174,-0.00000299,-0.00001306,0.00000898,-0.0
 0000349,-0.00000507,0.00000375,-0.00000706,0.00000913,0.00001006,0.000
 01115,0.00007394,-0.00000516,-0.00000453,-0.00000806,-0.00000587,0.000
 00358,0.00000329,0.00000554,-0.00000691,-0.00000535,-0.00001444,0.0000
 1213,0.00000373,0.00000532,-0.00000094,-0.00000210,-0.00000719,0.00000
 556,-0.00000760,0.00000093,-0.00001388,0.00000160,0.00000786,-0.000006
 63,0.00000908,-0.00005742,-0.00002790,0.00001588,0.00000504,-0.0000150
 2,-0.00000778,0.00001696,0.00004595,0.00000699,0.00051355,-0.00032562,
 -0.00003206,-0.00146599,0.00189214,0.00035264,-0.05454847,-0.04882079,
 0.06630856,-0.00005197,-0.00000510,0.00002485,0.00002865,0.00004613,-0
 .00019989,0.00048959,-0.00077528,0.00119146,-0.00014987,0.00001406,0.0
 0003148,-0.00002964,0.00005466,-0.00000935,0.00002386,0.00000458,0.000
 08531,0.00000114,-0.00000706,-0.00001606,-0.00000046,0.00000387,0.0000
 0982,-0.00000063,-0.00000145,0.00000140,0.00002460,0.00001314,0.000005
 94,0.00003964,-0.00002685,-0.00002930,-0.00001406,-0.00000034,-0.00000
 653,0.00000667,0.00000300,-0.00001559,0.00001167,-0.00001244,-0.000038
 15,-0.00005544,0.00025566,-0.00056406,-0.00076944,0.00389614,-0.001020
 93,-0.00729903,0.00185399,0.00930172,-0.12776013,0.06446899,0.10675025
 ,0.00000368,-0.00000166,-0.00000326,0.00000513,0.00000107,-0.00000459,
 0.00000268,0.00002388,0.00001292,-0.00000203,-0.00000612,-0.00000802,0
 .00000605,-0.00000232,0.00000123,-0.00000808,0.00000193,-0.00000729,-0
 .00000471,0.00000054,-0.00000140,-0.00000453,-0.00000297,-0.00000923,-
 0.00000345,-0.00000172,0.00000108,0.00001060,0.00000785,0.00001096,0.0
 0002069,0.00000283,-0.00001200,-0.00001107,0.00000879,-0.00000266,-0.0
 0001754,-0.00000014,0.00000741,0.00000562,-0.00000244,-0.00000578,-0.0
 0000990,0.00000744,0.00000042,-0.00000126,-0.00000270,0.00000231,-0.00
 001071,0.00000357,-0.00000977,-0.00000049,-0.00000721,0.00000206,0.000
 00889,-0.00001132,0.00001229,-0.00000981,-0.00000758,0.00002048,-0.000
 01469,0.00000577,-0.00001307,0.00000695,0.00002363,0.00002996,-0.00004
 831,-0.00039091,-0.00027477,0.00036130,0.00009833,-0.00013227,-0.01240
 112,0.01147515,0.01619085,0.13575767,0.00012919,0.00001026,-0.00009729
 ,-0.00016341,-0.00035293,0.00035766,0.00031238,0.00160525,-0.00246561,
 0.00027907,0.00000167,-0.00006811,0.00001959,-0.00005597,-0.00002757,-
 0.00002688,0.00000960,-0.00005614,-0.00000398,0.00000244,0.00001088,-0
 .00000270,-0.00000219,0.00000298,0.00001511,-0.00000258,-0.00002618,-0
 .00002505,-0.00005126,0.00008696,0.00003065,0.00000163,-0.00004504,-0.
 00000018,0.00001436,-0.00002948,-0.00000723,-0.00000688,0.00000833,-0.
 00000862,0.00000288,0.00002069,-0.00021539,-0.00042844,0.00095617,0.00
 440039,-0.00798217,0.00216281,0.01288967,-0.00814855,-0.02316487,0.063
 49780,-0.09723969,-0.08191026,-0.00000309,0.00001231,0.00000350,-0.000
 00351,0.00000116,0.00001070,-0.00001051,-0.00006347,-0.00002307,-0.000
 01112,-0.00000168,0.00001188,-0.00000258,0.00000064,-0.00000119,0.0000
 0692,0.00000220,0.00000327,0.00000129,0.00000382,-0.00000379,0.0000004
 3,0.00000239,0.00000246,0.00000813,0.00000814,0.00000013,-0.00000058,-
 0.00000120,0.00000986,0.00001139,-0.00004187,0.00000884,-0.00001403,0.
 00000741,0.00002287,0.00001319,0.00001094,-0.00000341,-0.00000873,0.00
 000304,0.00001158,-0.00000257,0.00000392,0.00000396,0.00001088,0.00000
 187,-0.00000826,0.00001330,0.00000052,0.00001028,0.00000028,0.00000525
 ,-0.00000306,-0.00001457,0.00001717,-0.00001687,0.00001136,0.00000830,
 -0.00000024,0.00001128,0.00000372,0.00001035,-0.00001513,-0.00002199,-
 0.00003133,0.00009478,0.00099726,0.00035303,-0.00104878,0.00044021,-0.
 00011656,-0.01034438,0.00997423,0.01544866,-0.07189627,0.10421048,-0.0
 0002933,-0.00000249,0.00003325,-0.00011977,0.00022011,-0.00016304,-0.0
 0046049,0.00037187,0.00104855,-0.00003723,0.00001273,0.00006405,0.0000
 2606,-0.00000992,0.00000815,-0.00000593,0.00000264,-0.00000839,0.00000
 143,-0.00000144,0.00000042,-0.00000014,0.00000127,-0.00000334,-0.00000
 392,-0.00000274,0.00000947,-0.00000868,0.00001754,-0.00004260,-0.00002
 290,0.00000897,0.00004427,0.00001133,-0.00000569,0.00001676,0.00000092
 ,-0.00000023,0.00000253,-0.00000410,-0.00000567,-0.00000069,0.00011433
 ,-0.00020415,-0.00010986,-0.00171668,0.00336429,0.00061736,-0.00627522
 ,0.00357838,0.00776740,0.10809162,-0.08421447,-0.18947927,0.00000677,0
 .00001003,-0.00000019,0.00000222,-0.00000383,0.00000174,0.00000548,0.0
 0001523,0.00000529,-0.00000889,-0.00000438,0.00000910,0.00000143,0.000
 00020,-0.00000283,0.00000035,-0.00000090,0.00000421,0.00000447,-0.0000
 0205,-0.00000020,0.00000053,0.00000006,0.00000471,-0.00000099,-0.00000
 176,-0.00000205,-0.00000160,-0.00000507,-0.00000701,-0.00001538,-0.000
 00097,-0.00002338,0.00000038,0.00000293,-0.00000026,0.00000646,-0.0000
 0270,-0.00000256,-0.00000176,0.00000041,-0.00000141,0.00000858,-0.0000
 0670,-0.00000020,-0.00000419,0.00000145,0.00000032,0.00000182,-0.00000
 051,0.00000338,0.00000097,-0.00000095,-0.00000236,-0.00000222,0.000002
 70,-0.00000144,-0.00000428,-0.00000280,-0.00000340,0.00000516,-0.00000
 290,0.00000380,-0.00000341,0.00000842,-0.00000297,0.00010672,-0.000813
 73,0.00026696,0.00041502,-0.00054052,0.00037788,0.00263160,-0.00291497
 ,-0.00564962,-0.11772085,0.09117194,0.20217464,-0.00000847,-0.00000370
 ,0.00002012,-0.00008306,0.00005719,-0.00010468,-0.00013661,0.00069483,
 -0.00043101,0.00008319,0.00000565,0.00008167,-0.00001195,-0.00002008,0
 .00002466,-0.00000490,-0.00002529,-0.00008752,-0.00000005,0.00001190,0
 .00002034,-0.00000460,0.00000532,0.00000340,0.00002754,-0.00002977,-0.
 00001620,-0.00000231,0.00002698,-0.00005386,0.00001566,-0.00000527,0.0
 0004655,0.00001108,-0.00000153,0.00001749,-0.00000442,0.00000210,0.000
 01870,0.00001701,0.00001335,0.00002083,-0.00011832,-0.00019235,0.00058
 815,0.00092268,-0.00133900,0.00010985,-0.00840597,-0.00130103,-0.01011
 056,-0.14011489,-0.02574574,-0.12598847,0.00001213,0.00001782,-0.00000
 229,0.00000507,-0.00001526,0.00000262,-0.00000020,0.00000261,0.0000012
 8,-0.00003539,-0.00000214,0.00005247,-0.00001289,0.00000368,0.00000244
 ,0.00000779,-0.00000137,0.00000403,-0.00000414,0.00000135,0.00000121,0
 .00000895,0.00000209,0.00000751,-0.00000738,0.00000131,0.00000582,-0.0
 0000051,0.00000957,0.00000069,-0.00002550,-0.00002513,-0.00006361,-0.0
 0001696,0.00002568,0.00001763,0.00000236,-0.00000324,-0.00000008,-0.00
 000284,0.00000640,0.00000247,0.00000967,-0.00000661,-0.00000242,-0.000
 00531,-0.00000056,0.00000320,0.00000466,-0.00000439,0.00000533,-0.0000
 0592,0.00001123,0.00000125,-0.00000118,-0.00000262,-0.00000747,0.00003
 257,0.00001369,-0.00000281,-0.00001554,0.00001142,0.00000477,0.0000003
 9,-0.00004772,0.00000192,0.00056972,0.00229461,-0.00045075,0.00064618,
 0.00019300,0.00077757,-0.01329816,-0.00275042,-0.01944010,0.01186327,0
 .00207221,0.01500432,0.14808756,0.00002260,-0.00000033,0.00000599,0.00
 005196,0.00002959,0.00000331,0.00003590,-0.00069048,0.00082631,-0.0000
 4650,-0.00001093,-0.00003128,-0.00000918,0.00002431,-0.00000511,0.0000
 2624,0.00003185,0.00005494,0.00000151,-0.00001895,-0.00002183,-0.00000
 171,-0.00000180,0.00000487,0.00001536,-0.00000849,-0.00000854,-0.00000
 782,-0.00001328,-0.00000151,0.00002074,-0.00000306,0.00000666,0.000005
 36,0.00000694,-0.00000146,-0.00000232,0.00000125,-0.00000402,-0.000058
 19,-0.00007922,0.00000076,0.00016201,-0.00019857,-0.00070628,-0.002209
 45,0.00270479,-0.00014382,0.02027073,0.00461125,0.02711504,-0.02678930
 ,-0.05463491,-0.03577918,-0.00000893,-0.00001320,-0.00000914,-0.000004
 25,0.00000885,0.00000033,-0.00000749,0.00000112,-0.00000376,0.00001466
 ,0.00000781,-0.00003202,0.00001211,0.00000199,-0.00000236,-0.00000540,
 0.00000137,-0.00000282,-0.00000133,0.00000376,-0.00000321,0.00000014,-
 0.00000099,0.00000135,-0.00000066,0.00000055,-0.00000251,0.00000020,-0
 .00000278,0.00000595,-0.00000386,-0.00000168,-0.00001714,-0.00000392,0
 .00000633,0.00000079,-0.00000826,-0.00000091,-0.00000257,0.00000004,0.
 00000090,0.00000035,-0.00000244,0.00000010,0.00000057,0.00000017,-0.00
 000122,-0.00000153,-0.00000188,0.00000196,-0.00000198,0.00000552,-0.00
 000417,-0.00000167,-0.00000187,0.00000613,0.00000417,0.00000248,0.0000
 0412,-0.00000244,0.00002679,0.00000171,-0.00000247,-0.00002806,0.00005
 912,-0.00001108,0.00245304,-0.00521038,0.00120566,-0.00073153,0.001479
 81,-0.00040666,-0.01011932,-0.00328595,-0.01668627,-0.00911311,-0.0029
 6222,-0.01003962,0.02603923,0.05814791,-0.00003887,-0.00000271,0.00000
 764,-0.00001938,-0.00003075,-0.00009657,0.00015947,-0.00019064,0.00009
 287,-0.00006264,0.00001921,0.00004161,-0.00002139,0.00001561,0.0000253
 8,0.00000342,-0.00002912,-0.00003481,0.00000038,0.00001359,0.00001215,
 0.00000092,0.00000095,-0.00000256,-0.00000095,-0.00000245,0.00000338,0
 .00001846,0.00002581,-0.00002704,-0.00000125,-0.00000710,-0.00000104,-
 0.00000636,-0.00000552,0.00000842,-0.00000123,0.00000423,0.00000575,0.
 00003278,0.00004165,0.00000873,-0.00001293,0.00013470,0.00010142,0.000
 48576,0.00019007,0.00148946,-0.00612656,-0.00242593,-0.01075011,-0.126
 62025,-0.03301545,-0.22053069,0.00000480,0.00000043,0.00000404,0.00000
 168,-0.00000278,-0.00000436,0.00000336,0.00001449,0.00000871,-0.000001
 38,0.00000238,0.00000276,-0.00001074,0.00000080,0.00000489,0.00000299,
 -0.00000236,-0.00000092,-0.00000471,-0.00000136,0.00000460,0.00000382,
 0.00000094,-0.00000096,-0.00000557,-0.00000257,0.00000495,-0.00000182,
 0.00000846,-0.00000412,-0.00000342,0.00001609,0.00000312,0.00000422,-0
 .00000026,-0.00000457,-0.00000710,-0.00000441,0.00000428,0.00000428,0.
 00000054,-0.00000360,0.00000035,0.00000021,-0.00000279,-0.00000424,-0.
 00000214,0.00000551,-0.00000200,-0.00000315,-0.00000326,-0.00000545,0.
 00000542,0.00000458,0.00000497,-0.00001189,0.00000111,0.00001045,0.000
 00527,-0.00000435,-0.00001757,0.00000141,-0.00000173,0.00000136,-0.000
 04075,0.00001053,-0.00008873,0.00215492,0.00077727,0.00031394,0.000027
 14,0.00012819,0.00568295,0.00099323,0.00791936,-0.01358938,-0.00259150
 ,-0.01695717,0.13991353,0.03469523,0.23774995\\0.00000044,-0.00000010,
 -0.00000127,-0.00000049,-0.00000093,-0.00000325,-0.00000083,0.00000135
 ,0.00000082,0.00000259,0.00000327,0.00000211,-0.00000341,-0.00000299,-
 0.00000062,-0.00000094,-0.00000160,0.00000165,-0.00000176,0.00000195,-
 0.00000074,-0.00000109,-0.00000253,0.00000035,0.00000070,-0.00000214,0
 .00000085,0.00000144,0.00000073,-0.00000419,0.00000110,-0.00000012,0.0
 0000046,-0.00000194,-0.00000188,0.00000304,0.00000145,0.00000224,-0.00
 000038,0.00000165,-0.00000100,-0.00000171,-0.00000013,-0.00000027,0.00
 000139,0.00000172,0.00000425,-0.00000114,-0.00000292,-0.00000113,0.000
 00038,0.00000062,0.00000032,-0.00000044,-0.00000015,0.00000028,0.00000
 108,-0.00000088,-0.00000008,0.00000124,-0.00000025,0.00000011,0.000000
 30,-0.00000044,0.00000011,0.00000060,-0.00000094,-0.00000107,-0.000000
 26,-0.00000033,0.00000012,0.00000056,0.00000112,-0.00000092,0.00000068
 ,0.00000046,-0.00000027,0.00000059,0.00000032,-0.00000049,-0.00000073,
 -0.00000083,0.00000004,0.00000101,0.00000028,0.00000004,0.00000023,0.0
 0000059,-0.00000122,0.00000012,0.00000055,-0.00000022,-0.00000077,-0.0
 0000044,-0.00000117,-0.00000032,0.00000067,0.00000049,0.00000018,0.000
 00052,-0.00000028,-0.00000116,-0.00000057,-0.00000065,0.00000102,-0.00
 000070,-0.00000111,0.00000010,-0.00000117,-0.00000015,0.00000039,0.000
 00078,0.00000176,-0.00000114,0.,0.00000025,0.00000093,0.00000014,-0.00
 000021,0.00000023,0.00000078,0.00000131,0.00000019,0.00000064,0.000000
 87,-0.00000025,0.00000090,0.00000102,-0.00000083,0.00000071,0.00000119
 ,-0.00000054,0.00000005,0.00000082,-0.00000076\\\@
 The archive entry for this job was punched.


 IF GOD HAD MEANT MAN TO SEE THE SUN RISE, HE
 WOULD HAVE SCHEDULED IT FOR A LATER HOUR.
 Job cpu time:       1 days 19 hours 48 minutes 22.2 seconds.
 Elapsed time:       0 days  2 hours 11 minutes 26.3 seconds.
 File lengths (MBytes):  RWF=   1849 Int=      0 D2E=      0 Chk=     43 Scr=      1
 Normal termination of Gaussian 16 at Tue Jan  7 22:42:49 2025.
