 Entering Gaussian System, Link 0=g16
 Input=gjfs/data_set_12-nBA_dormant-25.gjf
 Output=gjfs/data_set_12-nBA_dormant-25.log
 Initial command:
 /usr/local/intel/g16/l1.exe "/scr/Gau-4147995.inp" -scrdir="/scr/"
 Entering Link 1 = /usr/local/intel/g16/l1.exe PID=   4147997.
  
 Copyright (c) 1988-2019, Gaussian, Inc.  All Rights Reserved.
  
 This is part of the Gaussian(R) 16 program.  It is based on
 the Gaussian(R) 09 system (copyright 2009, Gaussian, Inc.),
 the Gaussian(R) 03 system (copyright 2003, Gaussian, Inc.),
 the Gaussian(R) 98 system (copyright 1998, Gaussian, Inc.),
 the Gaussian(R) 94 system (copyright 1995, Gaussian, Inc.),
 the Gaussian 92(TM) system (copyright 1992, Gaussian, Inc.),
 the Gaussian 90(TM) system (copyright 1990, Gaussian, Inc.),
 the Gaussian 88(TM) system (copyright 1988, Gaussian, Inc.),
 the Gaussian 86(TM) system (copyright 1986, Carnegie Mellon
 University), and the Gaussian 82(TM) system (copyright 1983,
 Carnegie Mellon University). Gaussian is a federally registered
 trademark of Gaussian, Inc.
  
 This software contains proprietary and confidential information,
 including trade secrets, belonging to Gaussian, Inc.
  
 This software is provided under written license and may be
 used, copied, transmitted, or stored only in accord with that
 written license.
  
 The following legend is applicable only to US Government
 contracts under FAR:
  
                    RESTRICTED RIGHTS LEGEND
  
 Use, reproduction and disclosure by the US Government is
 subject to restrictions as set forth in subparagraphs (a)
 and (c) of the Commercial Computer Software - Restricted
 Rights clause in FAR 52.227-19.
  
 Gaussian, Inc.
 340 Quinnipiac St., Bldg. 40, Wallingford CT 06492
  
  
 ---------------------------------------------------------------
 Warning -- This program may not be used in any manner that
 competes with the business of Gaussian, Inc. or will provide
 assistance to any competitor of Gaussian, Inc.  The licensee
 of this program is prohibited from giving any competitor of
 Gaussian, Inc. access to this program.  By using this program,
 the user acknowledges that Gaussian, Inc. is engaged in the
 business of creating and licensing software in the field of
 computational chemistry and represents and warrants to the
 licensee that it is not a competitor of Gaussian, Inc. and that
 it will not use this program in any manner prohibited above.
 ---------------------------------------------------------------
  

 Cite this work as:
 Gaussian 16, Revision C.01,
 M. J. Frisch, G. W. Trucks, H. B. Schlegel, G. E. Scuseria, 
 M. A. Robb, J. R. Cheeseman, G. Scalmani, V. Barone, 
 G. A. Petersson, H. Nakatsuji, X. Li, M. Caricato, A. V. Marenich, 
 J. Bloino, B. G. Janesko, R. Gomperts, B. Mennucci, H. P. Hratchian, 
 J. V. Ortiz, A. F. Izmaylov, J. L. Sonnenberg, D. Williams-Young, 
 F. Ding, F. Lipparini, F. Egidi, J. Goings, B. Peng, A. Petrone, 
 T. Henderson, D. Ranasinghe, V. G. Zakrzewski, J. Gao, N. Rega, 
 G. Zheng, W. Liang, M. Hada, M. Ehara, K. Toyota, R. Fukuda, 
 J. Hasegawa, M. Ishida, T. Nakajima, Y. Honda, O. Kitao, H. Nakai, 
 T. Vreven, K. Throssell, J. A. Montgomery, Jr., J. E. Peralta, 
 F. Ogliaro, M. J. Bearpark, J. J. Heyd, E. N. Brothers, K. N. Kudin, 
 V. N. Staroverov, T. A. Keith, R. Kobayashi, J. Normand, 
 K. Raghavachari, A. P. Rendell, J. C. Burant, S. S. Iyengar, 
 J. Tomasi, M. Cossi, J. M. Millam, M. Klene, C. Adamo, R. Cammi, 
 J. W. Ochterski, R. L. Martin, K. Morokuma, O. Farkas, 
 J. B. Foresman, and D. J. Fox, Gaussian, Inc., Wallingford CT, 2019.
 
 ******************************************
 Gaussian 16:  ES64L-G16RevC.01  3-Jul-2019
                 7-Jan-2025 
 ******************************************
 %nprocshared=20
 Will use up to   20 processors via shared memory.
 %mem=30GB
 %chk=outputs/data_set_12-nBA_dormant-25.chk
 ----------------------------------
 #p M062X/DEF2TZVP opt freq pop=NBO
 ----------------------------------
 1/18=20,19=15,26=3,38=1/1,3;
 2/9=110,12=2,17=6,18=5,40=1/2;
 3/5=44,7=101,11=2,25=1,30=1,71=1,74=-55/1,2,3;
 4//1;
 5/5=2,38=5/2;
 6/7=2,8=2,9=2,10=2,28=1,40=1/1,7;
 7//1,2,3,16;
 1/18=20,19=15,26=3/3(2);
 2/9=110/2;
 99//99;
 2/9=110/2;
 3/5=44,7=101,11=2,25=1,30=1,71=1,74=-55/1,2,3;
 4/5=5,16=3,69=1/1;
 5/5=2,38=5/2;
 7//1,2,3,16;
 1/18=20,19=15,26=3/3(-5);
 2/9=110/2;
 6/7=2,8=2,9=2,10=2,19=2,28=1,40=1/1,7;
 99/9=1/99;
 Leave Link    1 at Tue Jan  7 18:11:30 2025, MaxMem=  4026531840 cpu:               0.9 elap:               0.1
 (Enter /usr/local/intel/g16/l101.exe)
 --------------------------
 data_set_12-nBA_dormant-25
 --------------------------
 Symbolic Z-matrix:
 Charge =  0 Multiplicity = 1
 C                    -0.83171  -2.63311  -1.8344 
 C                    -0.78985  -1.18051  -1.3723 
 C                    -1.6289   -0.96079  -0.10996 
 O                    -1.71166  -1.73552   0.85024 
 O                    -2.37053   0.18122  -0.19462 
 C                    -3.15323   0.57013   0.98926 
 C                    -3.75642   1.93311   0.68745 
 O                     0.62324  -0.85056  -1.15234 
 N                     0.81567   0.09715  -0.04519 
 C                     1.20723   1.41853  -0.67232 
 C                     0.04672   1.85398  -1.59819 
 C                     2.48922   1.35864  -1.54519 
 C                     1.33828   2.4933    0.42546 
 C                     1.66017  -0.56916   1.03875 
 C                     1.46379  -2.10287   0.99288 
 C                     1.11066  -0.07496   2.39818 
 C                     3.18754  -0.32279   0.95545 
 H                    -1.84256  -2.90752  -2.15347 
 H                    -0.52507  -3.29854  -1.02439 
 H                    -0.15019  -2.76135  -2.67969 
 H                    -1.186    -0.51259  -2.1427 
 H                    -2.47796   0.59528   1.85007 
 H                    -3.91491  -0.19412   1.16989 
 H                    -2.96914   2.66954   0.50297 
 H                    -4.35698   2.26992   1.5387 
 H                    -4.39967   1.88437  -0.19532 
 H                    -0.91593   1.76226  -1.09014 
 H                     0.02724   1.2495   -2.50997 
 H                     0.19619   2.8976   -1.89698 
 H                     2.48697   0.44151  -2.14189 
 H                     3.4083    1.40082  -0.95858 
 H                     2.49517   2.21312  -2.23181 
 H                     2.17068   2.31001   1.10828 
 H                     0.41246   2.56177   1.00646 
 H                     1.51738   3.46094  -0.05591 
 H                     1.98998  -2.53649   1.85124 
 H                     1.87957  -2.5288    0.07731 
 H                     0.41043  -2.37619   1.06732 
 H                     1.63756  -0.58496   3.21354 
 H                     0.0458   -0.31537   2.46903 
 H                     1.23748   1.0003    2.53854 
 H                     3.58682  -0.66809  -0.0025 
 H                     3.67314  -0.8998    1.75059 
 H                     3.46414   0.72469   1.09916 
 
 ITRead=  0  0  0  0  0  0  0  0  0  0  0  0  0  0  0  0  0  0  0  0
 ITRead=  0  0  0  0  0  0  0  0  0  0  0  0  0  0  0  0  0  0  0  0
 ITRead=  0  0  0  0
 MicOpt= -1 -1 -1 -1 -1 -1 -1 -1 -1 -1 -1 -1 -1 -1 -1 -1 -1 -1 -1 -1
 MicOpt= -1 -1 -1 -1 -1 -1 -1 -1 -1 -1 -1 -1 -1 -1 -1 -1 -1 -1 -1 -1
 MicOpt= -1 -1 -1 -1
 NAtoms=     44 NQM=       44 NQMF=       0 NMMI=      0 NMMIF=      0
                NMic=       0 NMicF=      0.
                    Isotopes and Nuclear Properties:
 (Nuclear quadrupole moments (NQMom) in fm**2, nuclear magnetic moments (NMagM)
  in nuclear magnetons)

  Atom         1           2           3           4           5           6           7           8           9          10
 IAtWgt=          12          12          12          16          16          12          12          16          14          12
 AtmWgt=  12.0000000  12.0000000  12.0000000  15.9949146  15.9949146  12.0000000  12.0000000  15.9949146  14.0030740  12.0000000
 NucSpn=           0           0           0           0           0           0           0           0           2           0
 AtZEff=  -0.0000000  -0.0000000  -0.0000000  -0.0000000  -0.0000000  -0.0000000  -0.0000000  -0.0000000  -0.0000000  -0.0000000
 NQMom=    0.0000000   0.0000000   0.0000000   0.0000000   0.0000000   0.0000000   0.0000000   0.0000000   2.0440000   0.0000000
 NMagM=    0.0000000   0.0000000   0.0000000   0.0000000   0.0000000   0.0000000   0.0000000   0.0000000   0.4037610   0.0000000
 AtZNuc=   6.0000000   6.0000000   6.0000000   8.0000000   8.0000000   6.0000000   6.0000000   8.0000000   7.0000000   6.0000000

  Atom        11          12          13          14          15          16          17          18          19          20
 IAtWgt=          12          12          12          12          12          12          12           1           1           1
 AtmWgt=  12.0000000  12.0000000  12.0000000  12.0000000  12.0000000  12.0000000  12.0000000   1.0078250   1.0078250   1.0078250
 NucSpn=           0           0           0           0           0           0           0           1           1           1
 AtZEff=  -0.0000000  -0.0000000  -0.0000000  -0.0000000  -0.0000000  -0.0000000  -0.0000000  -0.0000000  -0.0000000  -0.0000000
 NQMom=    0.0000000   0.0000000   0.0000000   0.0000000   0.0000000   0.0000000   0.0000000   0.0000000   0.0000000   0.0000000
 NMagM=    0.0000000   0.0000000   0.0000000   0.0000000   0.0000000   0.0000000   0.0000000   2.7928460   2.7928460   2.7928460
 AtZNuc=   6.0000000   6.0000000   6.0000000   6.0000000   6.0000000   6.0000000   6.0000000   1.0000000   1.0000000   1.0000000

  Atom        21          22          23          24          25          26          27          28          29          30
 IAtWgt=           1           1           1           1           1           1           1           1           1           1
 AtmWgt=   1.0078250   1.0078250   1.0078250   1.0078250   1.0078250   1.0078250   1.0078250   1.0078250   1.0078250   1.0078250
 NucSpn=           1           1           1           1           1           1           1           1           1           1
 AtZEff=  -0.0000000  -0.0000000  -0.0000000  -0.0000000  -0.0000000  -0.0000000  -0.0000000  -0.0000000  -0.0000000  -0.0000000
 NQMom=    0.0000000   0.0000000   0.0000000   0.0000000   0.0000000   0.0000000   0.0000000   0.0000000   0.0000000   0.0000000
 NMagM=    2.7928460   2.7928460   2.7928460   2.7928460   2.7928460   2.7928460   2.7928460   2.7928460   2.7928460   2.7928460
 AtZNuc=   1.0000000   1.0000000   1.0000000   1.0000000   1.0000000   1.0000000   1.0000000   1.0000000   1.0000000   1.0000000

  Atom        31          32          33          34          35          36          37          38          39          40
 IAtWgt=           1           1           1           1           1           1           1           1           1           1
 AtmWgt=   1.0078250   1.0078250   1.0078250   1.0078250   1.0078250   1.0078250   1.0078250   1.0078250   1.0078250   1.0078250
 NucSpn=           1           1           1           1           1           1           1           1           1           1
 AtZEff=  -0.0000000  -0.0000000  -0.0000000  -0.0000000  -0.0000000  -0.0000000  -0.0000000  -0.0000000  -0.0000000  -0.0000000
 NQMom=    0.0000000   0.0000000   0.0000000   0.0000000   0.0000000   0.0000000   0.0000000   0.0000000   0.0000000   0.0000000
 NMagM=    2.7928460   2.7928460   2.7928460   2.7928460   2.7928460   2.7928460   2.7928460   2.7928460   2.7928460   2.7928460
 AtZNuc=   1.0000000   1.0000000   1.0000000   1.0000000   1.0000000   1.0000000   1.0000000   1.0000000   1.0000000   1.0000000

  Atom        41          42          43          44
 IAtWgt=           1           1           1           1
 AtmWgt=   1.0078250   1.0078250   1.0078250   1.0078250
 NucSpn=           1           1           1           1
 AtZEff=  -0.0000000  -0.0000000  -0.0000000  -0.0000000
 NQMom=    0.0000000   0.0000000   0.0000000   0.0000000
 NMagM=    2.7928460   2.7928460   2.7928460   2.7928460
 AtZNuc=   1.0000000   1.0000000   1.0000000   1.0000000
 Leave Link  101 at Tue Jan  7 18:11:31 2025, MaxMem=  4026531840 cpu:              19.3 elap:               1.0
 (Enter /usr/local/intel/g16/l103.exe)

 GradGradGradGradGradGradGradGradGradGradGradGradGradGradGradGradGradGrad
 Berny optimization.
 Initialization pass.
                           ----------------------------
                           !    Initial Parameters    !
                           ! (Angstroms and Degrees)  !
 --------------------------                            --------------------------
 ! Name  Definition              Value          Derivative Info.                !
 --------------------------------------------------------------------------------
 ! R1    R(1,2)                  1.5249         estimate D2E/DX2                !
 ! R2    R(1,18)                 1.095          estimate D2E/DX2                !
 ! R3    R(1,19)                 1.0922         estimate D2E/DX2                !
 ! R4    R(1,20)                 1.0934         estimate D2E/DX2                !
 ! R5    R(2,3)                  1.5316         estimate D2E/DX2                !
 ! R6    R(2,8)                  1.4677         estimate D2E/DX2                !
 ! R7    R(2,21)                 1.0939         estimate D2E/DX2                !
 ! R8    R(3,4)                  1.2365         estimate D2E/DX2                !
 ! R9    R(3,5)                  1.3643         estimate D2E/DX2                !
 ! R10   R(5,6)                  1.4715         estimate D2E/DX2                !
 ! R11   R(6,7)                  1.5207         estimate D2E/DX2                !
 ! R12   R(6,22)                 1.0944         estimate D2E/DX2                !
 ! R13   R(6,23)                 1.094          estimate D2E/DX2                !
 ! R14   R(7,24)                 1.0937         estimate D2E/DX2                !
 ! R15   R(7,25)                 1.0949         estimate D2E/DX2                !
 ! R16   R(7,26)                 1.0934         estimate D2E/DX2                !
 ! R17   R(8,9)                  1.47           estimate D2E/DX2                !
 ! R18   R(9,10)                 1.5142         estimate D2E/DX2                !
 ! R19   R(9,14)                 1.5271         estimate D2E/DX2                !
 ! R20   R(10,11)                1.5471         estimate D2E/DX2                !
 ! R21   R(10,12)                1.5521         estimate D2E/DX2                !
 ! R22   R(10,13)                1.5419         estimate D2E/DX2                !
 ! R23   R(11,27)                1.0923         estimate D2E/DX2                !
 ! R24   R(11,28)                1.0941         estimate D2E/DX2                !
 ! R25   R(11,29)                1.0958         estimate D2E/DX2                !
 ! R26   R(12,30)                1.0942         estimate D2E/DX2                !
 ! R27   R(12,31)                1.0911         estimate D2E/DX2                !
 ! R28   R(12,32)                1.0962         estimate D2E/DX2                !
 ! R29   R(13,33)                1.0921         estimate D2E/DX2                !
 ! R30   R(13,34)                1.0952         estimate D2E/DX2                !
 ! R31   R(13,35)                1.0955         estimate D2E/DX2                !
 ! R32   R(14,15)                1.5469         estimate D2E/DX2                !
 ! R33   R(14,16)                1.5473         estimate D2E/DX2                !
 ! R34   R(14,17)                1.5493         estimate D2E/DX2                !
 ! R35   R(15,36)                1.0962         estimate D2E/DX2                !
 ! R36   R(15,37)                1.092          estimate D2E/DX2                !
 ! R37   R(15,38)                1.0908         estimate D2E/DX2                !
 ! R38   R(16,39)                1.0966         estimate D2E/DX2                !
 ! R39   R(16,40)                1.094          estimate D2E/DX2                !
 ! R40   R(16,41)                1.0918         estimate D2E/DX2                !
 ! R41   R(17,42)                1.0938         estimate D2E/DX2                !
 ! R42   R(17,43)                1.0959         estimate D2E/DX2                !
 ! R43   R(17,44)                1.0929         estimate D2E/DX2                !
 ! A1    A(2,1,18)             110.6329         estimate D2E/DX2                !
 ! A2    A(2,1,19)             110.3599         estimate D2E/DX2                !
 ! A3    A(2,1,20)             109.2021         estimate D2E/DX2                !
 ! A4    A(18,1,19)            108.8202         estimate D2E/DX2                !
 ! A5    A(18,1,20)            108.7095         estimate D2E/DX2                !
 ! A6    A(19,1,20)            109.0807         estimate D2E/DX2                !
 ! A7    A(1,2,3)              111.8008         estimate D2E/DX2                !
 ! A8    A(1,2,8)              106.6185         estimate D2E/DX2                !
 ! A9    A(1,2,21)             110.9945         estimate D2E/DX2                !
 ! A10   A(3,2,8)              111.8192         estimate D2E/DX2                !
 ! A11   A(3,2,21)             107.1261         estimate D2E/DX2                !
 ! A12   A(8,2,21)             108.4797         estimate D2E/DX2                !
 ! A13   A(2,3,4)              125.9294         estimate D2E/DX2                !
 ! A14   A(2,3,5)              111.5146         estimate D2E/DX2                !
 ! A15   A(4,3,5)              122.4281         estimate D2E/DX2                !
 ! A16   A(3,5,6)              117.4151         estimate D2E/DX2                !
 ! A17   A(5,6,7)              106.7487         estimate D2E/DX2                !
 ! A18   A(5,6,22)             108.1012         estimate D2E/DX2                !
 ! A19   A(5,6,23)             108.5734         estimate D2E/DX2                !
 ! A20   A(7,6,22)             112.3499         estimate D2E/DX2                !
 ! A21   A(7,6,23)             112.5026         estimate D2E/DX2                !
 ! A22   A(22,6,23)            108.408          estimate D2E/DX2                !
 ! A23   A(6,7,24)             110.5759         estimate D2E/DX2                !
 ! A24   A(6,7,25)             109.8144         estimate D2E/DX2                !
 ! A25   A(6,7,26)             110.71           estimate D2E/DX2                !
 ! A26   A(24,7,25)            108.5938         estimate D2E/DX2                !
 ! A27   A(24,7,26)            108.5013         estimate D2E/DX2                !
 ! A28   A(25,7,26)            108.587          estimate D2E/DX2                !
 ! A29   A(2,8,9)              112.5724         estimate D2E/DX2                !
 ! A30   A(8,9,10)             106.5302         estimate D2E/DX2                !
 ! A31   A(8,9,14)             109.0073         estimate D2E/DX2                !
 ! A32   A(10,9,14)            122.1236         estimate D2E/DX2                !
 ! A33   A(9,10,11)            107.4282         estimate D2E/DX2                !
 ! A34   A(9,10,12)            114.3841         estimate D2E/DX2                !
 ! A35   A(9,10,13)            109.5967         estimate D2E/DX2                !
 ! A36   A(11,10,12)           107.0901         estimate D2E/DX2                !
 ! A37   A(11,10,13)           107.0757         estimate D2E/DX2                !
 ! A38   A(12,10,13)           110.9217         estimate D2E/DX2                !
 ! A39   A(10,11,27)           111.0437         estimate D2E/DX2                !
 ! A40   A(10,11,28)           110.8895         estimate D2E/DX2                !
 ! A41   A(10,11,29)           109.2031         estimate D2E/DX2                !
 ! A42   A(27,11,28)           108.996          estimate D2E/DX2                !
 ! A43   A(27,11,29)           109.0859         estimate D2E/DX2                !
 ! A44   A(28,11,29)           107.5401         estimate D2E/DX2                !
 ! A45   A(10,12,30)           109.7147         estimate D2E/DX2                !
 ! A46   A(10,12,31)           113.0725         estimate D2E/DX2                !
 ! A47   A(10,12,32)           109.0669         estimate D2E/DX2                !
 ! A48   A(30,12,31)           109.1057         estimate D2E/DX2                !
 ! A49   A(30,12,32)           108.1679         estimate D2E/DX2                !
 ! A50   A(31,12,32)           107.5804         estimate D2E/DX2                !
 ! A51   A(10,13,33)           113.1376         estimate D2E/DX2                !
 ! A52   A(10,13,34)           110.453          estimate D2E/DX2                !
 ! A53   A(10,13,35)           108.4663         estimate D2E/DX2                !
 ! A54   A(33,13,34)           108.8521         estimate D2E/DX2                !
 ! A55   A(33,13,35)           107.3589         estimate D2E/DX2                !
 ! A56   A(34,13,35)           108.427          estimate D2E/DX2                !
 ! A57   A(9,14,15)            109.9587         estimate D2E/DX2                !
 ! A58   A(9,14,16)            106.7295         estimate D2E/DX2                !
 ! A59   A(9,14,17)            115.9521         estimate D2E/DX2                !
 ! A60   A(15,14,16)           107.3153         estimate D2E/DX2                !
 ! A61   A(15,14,17)           106.3325         estimate D2E/DX2                !
 ! A62   A(16,14,17)           110.2759         estimate D2E/DX2                !
 ! A63   A(14,15,36)           107.9403         estimate D2E/DX2                !
 ! A64   A(14,15,37)           111.2988         estimate D2E/DX2                !
 ! A65   A(14,15,38)           111.654          estimate D2E/DX2                !
 ! A66   A(36,15,37)           108.6304         estimate D2E/DX2                !
 ! A67   A(36,15,38)           108.1179         estimate D2E/DX2                !
 ! A68   A(37,15,38)           109.0966         estimate D2E/DX2                !
 ! A69   A(14,16,39)           109.516          estimate D2E/DX2                !
 ! A70   A(14,16,40)           109.4149         estimate D2E/DX2                !
 ! A71   A(14,16,41)           112.7219         estimate D2E/DX2                !
 ! A72   A(39,16,40)           108.5021         estimate D2E/DX2                !
 ! A73   A(39,16,41)           107.8566         estimate D2E/DX2                !
 ! A74   A(40,16,41)           108.7337         estimate D2E/DX2                !
 ! A75   A(14,17,42)           110.9014         estimate D2E/DX2                !
 ! A76   A(14,17,43)           108.3061         estimate D2E/DX2                !
 ! A77   A(14,17,44)           113.2563         estimate D2E/DX2                !
 ! A78   A(42,17,43)           107.9077         estimate D2E/DX2                !
 ! A79   A(42,17,44)           108.9873         estimate D2E/DX2                !
 ! A80   A(43,17,44)           107.2826         estimate D2E/DX2                !
 ! D1    D(18,1,2,3)            65.4885         estimate D2E/DX2                !
 ! D2    D(18,1,2,8)          -172.0222         estimate D2E/DX2                !
 ! D3    D(18,1,2,21)          -54.063          estimate D2E/DX2                !
 ! D4    D(19,1,2,3)           -55.003          estimate D2E/DX2                !
 ! D5    D(19,1,2,8)            67.4862         estimate D2E/DX2                !
 ! D6    D(19,1,2,21)         -174.5546         estimate D2E/DX2                !
 ! D7    D(20,1,2,3)          -174.902          estimate D2E/DX2                !
 ! D8    D(20,1,2,8)           -52.4128         estimate D2E/DX2                !
 ! D9    D(20,1,2,21)           65.5464         estimate D2E/DX2                !
 ! D10   D(1,2,3,4)             39.3634         estimate D2E/DX2                !
 ! D11   D(1,2,3,5)           -136.5839         estimate D2E/DX2                !
 ! D12   D(8,2,3,4)            -80.1045         estimate D2E/DX2                !
 ! D13   D(8,2,3,5)            103.9482         estimate D2E/DX2                !
 ! D14   D(21,2,3,4)           161.1685         estimate D2E/DX2                !
 ! D15   D(21,2,3,5)           -14.7788         estimate D2E/DX2                !
 ! D16   D(1,2,8,9)           -146.3037         estimate D2E/DX2                !
 ! D17   D(3,2,8,9)            -23.826          estimate D2E/DX2                !
 ! D18   D(21,2,8,9)            94.0945         estimate D2E/DX2                !
 ! D19   D(2,3,5,6)           -175.7021         estimate D2E/DX2                !
 ! D20   D(4,3,5,6)              8.1855         estimate D2E/DX2                !
 ! D21   D(3,5,6,7)            174.0524         estimate D2E/DX2                !
 ! D22   D(3,5,6,22)            52.9777         estimate D2E/DX2                !
 ! D23   D(3,5,6,23)           -64.4298         estimate D2E/DX2                !
 ! D24   D(5,6,7,24)           -60.4675         estimate D2E/DX2                !
 ! D25   D(5,6,7,25)           179.7127         estimate D2E/DX2                !
 ! D26   D(5,6,7,26)            59.8166         estimate D2E/DX2                !
 ! D27   D(22,6,7,24)           57.8624         estimate D2E/DX2                !
 ! D28   D(22,6,7,25)          -61.9575         estimate D2E/DX2                !
 ! D29   D(22,6,7,26)          178.1465         estimate D2E/DX2                !
 ! D30   D(23,6,7,24)         -179.4612         estimate D2E/DX2                !
 ! D31   D(23,6,7,25)           60.719          estimate D2E/DX2                !
 ! D32   D(23,6,7,26)          -59.1771         estimate D2E/DX2                !
 ! D33   D(2,8,9,10)          -108.0225         estimate D2E/DX2                !
 ! D34   D(2,8,9,14)           118.435          estimate D2E/DX2                !
 ! D35   D(8,9,10,11)           60.336          estimate D2E/DX2                !
 ! D36   D(8,9,10,12)          -58.3807         estimate D2E/DX2                !
 ! D37   D(8,9,10,13)          176.3409         estimate D2E/DX2                !
 ! D38   D(14,9,10,11)        -173.6851         estimate D2E/DX2                !
 ! D39   D(14,9,10,12)          67.5982         estimate D2E/DX2                !
 ! D40   D(14,9,10,13)         -57.6801         estimate D2E/DX2                !
 ! D41   D(8,9,14,15)          -27.3556         estimate D2E/DX2                !
 ! D42   D(8,9,14,16)         -143.4465         estimate D2E/DX2                !
 ! D43   D(8,9,14,17)           93.2737         estimate D2E/DX2                !
 ! D44   D(10,9,14,15)        -152.2182         estimate D2E/DX2                !
 ! D45   D(10,9,14,16)          91.6908         estimate D2E/DX2                !
 ! D46   D(10,9,14,17)         -31.589          estimate D2E/DX2                !
 ! D47   D(9,10,11,27)          47.5209         estimate D2E/DX2                !
 ! D48   D(9,10,11,28)         -73.8204         estimate D2E/DX2                !
 ! D49   D(9,10,11,29)         167.8522         estimate D2E/DX2                !
 ! D50   D(12,10,11,27)        170.8346         estimate D2E/DX2                !
 ! D51   D(12,10,11,28)         49.4933         estimate D2E/DX2                !
 ! D52   D(12,10,11,29)        -68.8341         estimate D2E/DX2                !
 ! D53   D(13,10,11,27)        -70.136          estimate D2E/DX2                !
 ! D54   D(13,10,11,28)        168.5227         estimate D2E/DX2                !
 ! D55   D(13,10,11,29)         50.1952         estimate D2E/DX2                !
 ! D56   D(9,10,12,30)          41.1703         estimate D2E/DX2                !
 ! D57   D(9,10,12,31)         -80.8733         estimate D2E/DX2                !
 ! D58   D(9,10,12,32)         159.4839         estimate D2E/DX2                !
 ! D59   D(11,10,12,30)        -77.7374         estimate D2E/DX2                !
 ! D60   D(11,10,12,31)        160.219          estimate D2E/DX2                !
 ! D61   D(11,10,12,32)         40.5762         estimate D2E/DX2                !
 ! D62   D(13,10,12,30)        165.7483         estimate D2E/DX2                !
 ! D63   D(13,10,12,31)         43.7047         estimate D2E/DX2                !
 ! D64   D(13,10,12,32)        -75.9381         estimate D2E/DX2                !
 ! D65   D(9,10,13,33)          66.8838         estimate D2E/DX2                !
 ! D66   D(9,10,13,34)         -55.4194         estimate D2E/DX2                !
 ! D67   D(9,10,13,35)        -174.1192         estimate D2E/DX2                !
 ! D68   D(11,10,13,33)       -176.888          estimate D2E/DX2                !
 ! D69   D(11,10,13,34)         60.8088         estimate D2E/DX2                !
 ! D70   D(11,10,13,35)        -57.891          estimate D2E/DX2                !
 ! D71   D(12,10,13,33)        -60.3648         estimate D2E/DX2                !
 ! D72   D(12,10,13,34)        177.332          estimate D2E/DX2                !
 ! D73   D(12,10,13,35)         58.6322         estimate D2E/DX2                !
 ! D74   D(9,14,15,36)        -173.6092         estimate D2E/DX2                !
 ! D75   D(9,14,15,37)          67.2716         estimate D2E/DX2                !
 ! D76   D(9,14,15,38)         -54.909          estimate D2E/DX2                !
 ! D77   D(16,14,15,36)        -57.8875         estimate D2E/DX2                !
 ! D78   D(16,14,15,37)       -177.0067         estimate D2E/DX2                !
 ! D79   D(16,14,15,38)         60.8127         estimate D2E/DX2                !
 ! D80   D(17,14,15,36)         60.1216         estimate D2E/DX2                !
 ! D81   D(17,14,15,37)        -58.9976         estimate D2E/DX2                !
 ! D82   D(17,14,15,38)        178.8218         estimate D2E/DX2                !
 ! D83   D(9,14,16,39)         175.7947         estimate D2E/DX2                !
 ! D84   D(9,14,16,40)          56.9851         estimate D2E/DX2                !
 ! D85   D(9,14,16,41)         -64.1312         estimate D2E/DX2                !
 ! D86   D(15,14,16,39)         57.9513         estimate D2E/DX2                !
 ! D87   D(15,14,16,40)        -60.8583         estimate D2E/DX2                !
 ! D88   D(15,14,16,41)        178.0255         estimate D2E/DX2                !
 ! D89   D(17,14,16,39)        -57.465          estimate D2E/DX2                !
 ! D90   D(17,14,16,40)       -176.2746         estimate D2E/DX2                !
 ! D91   D(17,14,16,41)         62.6092         estimate D2E/DX2                !
 ! D92   D(9,14,17,42)         -58.5587         estimate D2E/DX2                !
 ! D93   D(9,14,17,43)        -176.79           estimate D2E/DX2                !
 ! D94   D(9,14,17,44)          64.343          estimate D2E/DX2                !
 ! D95   D(15,14,17,42)         64.0031         estimate D2E/DX2                !
 ! D96   D(15,14,17,43)        -54.2282         estimate D2E/DX2                !
 ! D97   D(15,14,17,44)       -173.0952         estimate D2E/DX2                !
 ! D98   D(16,14,17,42)       -179.9639         estimate D2E/DX2                !
 ! D99   D(16,14,17,43)         61.8049         estimate D2E/DX2                !
 ! D100  D(16,14,17,44)        -57.0621         estimate D2E/DX2                !
 --------------------------------------------------------------------------------
 Trust Radius=3.00D-01 FncErr=1.00D-07 GrdErr=1.00D-06 EigMax=2.50D+02 EigMin=1.00D-04
 Number of steps in this run=    233 maximum allowed number of steps=    264.
 GradGradGradGradGradGradGradGradGradGradGradGradGradGradGradGradGradGrad

 Leave Link  103 at Tue Jan  7 18:11:31 2025, MaxMem=  4026531840 cpu:               0.3 elap:               0.0
 (Enter /usr/local/intel/g16/l202.exe)
                          Input orientation:                          
 ---------------------------------------------------------------------
 Center     Atomic      Atomic             Coordinates (Angstroms)
 Number     Number       Type             X           Y           Z
 ---------------------------------------------------------------------
      1          6           0       -0.831705   -2.633105   -1.834401
      2          6           0       -0.789847   -1.180507   -1.372299
      3          6           0       -1.628901   -0.960786   -0.109963
      4          8           0       -1.711660   -1.735520    0.850239
      5          8           0       -2.370531    0.181220   -0.194618
      6          6           0       -3.153230    0.570131    0.989261
      7          6           0       -3.756418    1.933112    0.687450
      8          8           0        0.623235   -0.850558   -1.152336
      9          7           0        0.815673    0.097145   -0.045187
     10          6           0        1.207229    1.418527   -0.672323
     11          6           0        0.046722    1.853976   -1.598188
     12          6           0        2.489221    1.358642   -1.545190
     13          6           0        1.338277    2.493298    0.425456
     14          6           0        1.660173   -0.569159    1.038745
     15          6           0        1.463793   -2.102870    0.992875
     16          6           0        1.110662   -0.074960    2.398175
     17          6           0        3.187535   -0.322791    0.955450
     18          1           0       -1.842557   -2.907520   -2.153469
     19          1           0       -0.525069   -3.298537   -1.024393
     20          1           0       -0.150186   -2.761345   -2.679691
     21          1           0       -1.185998   -0.512593   -2.142698
     22          1           0       -2.477964    0.595276    1.850070
     23          1           0       -3.914910   -0.194124    1.169890
     24          1           0       -2.969143    2.669535    0.502974
     25          1           0       -4.356984    2.269917    1.538701
     26          1           0       -4.399666    1.884372   -0.195324
     27          1           0       -0.915932    1.762262   -1.090141
     28          1           0        0.027235    1.249499   -2.509969
     29          1           0        0.196188    2.897595   -1.896977
     30          1           0        2.486974    0.441505   -2.141888
     31          1           0        3.408298    1.400817   -0.958583
     32          1           0        2.495173    2.213116   -2.231814
     33          1           0        2.170677    2.310014    1.108280
     34          1           0        0.412464    2.561765    1.006456
     35          1           0        1.517377    3.460942   -0.055912
     36          1           0        1.989976   -2.536485    1.851244
     37          1           0        1.879567   -2.528801    0.077309
     38          1           0        0.410433   -2.376186    1.067324
     39          1           0        1.637559   -0.584960    3.213541
     40          1           0        0.045796   -0.315365    2.469032
     41          1           0        1.237476    1.000300    2.538538
     42          1           0        3.586819   -0.668090   -0.002498
     43          1           0        3.673141   -0.899797    1.750590
     44          1           0        3.464136    0.724685    1.099159
 ---------------------------------------------------------------------
                    Distance matrix (angstroms):
                    1          2          3          4          5
     1  C    0.000000
     2  C    1.524904   0.000000
     3  C    2.530980   1.531594   0.000000
     4  O    2.964333   2.469302   1.236547   0.000000
     5  O    3.602402   2.395787   1.364316   2.280292   0.000000
     6  C    4.860377   3.771906   2.423959   2.722770   1.471543
     7  C    5.980302   4.768410   3.679245   4.203141   2.401635
     8  O    2.399904   1.467668   2.484111   3.200812   3.308236
     9  N    3.656420   2.443628   2.664462   3.247747   3.190814
    10  C    4.682243   3.351605   3.744464   4.559180   3.815691
    11  C    4.578354   3.155782   3.597973   4.687343   3.257489
    12  C    5.200600   4.150838   4.939489   5.741021   5.179532
    13  C    6.007977   4.610605   4.584923   5.231200   4.414233
    14  C    4.327158   3.491343   3.505839   3.572841   4.281452
    15  C    3.680211   3.394657   3.476401   3.199811   4.618360
    16  C    5.313341   4.364704   3.818462   3.622025   4.348207
    17  C    5.410648   4.687607   4.973952   5.099900   5.698138
    18  H    1.094957   2.168179   2.830431   3.226915   3.695425
    19  H    1.092217   2.162683   2.742208   2.713902   4.025291
    20  H    1.093357   2.148834   3.468734   3.993861   4.445696
    21  H    2.171898   1.093874   2.128157   3.275598   2.383172
    22  H    5.167972   4.048062   2.642719   2.649433   2.088955
    23  H    4.947782   4.147493   2.729768   2.707838   2.094725
    24  H    6.176565   4.805081   3.918057   4.594167   2.652675
    25  H    6.917010   5.753591   4.538499   4.849252   3.363487
    26  H    5.985359   4.879503   3.972323   4.628412   2.649173
    27  H    4.458729   2.958953   2.980615   4.078325   2.327555
    28  H    4.033458   2.804790   3.658986   4.819242   3.500193
    29  H    5.625755   4.228294   4.627253   5.714266   4.106673
    30  H    4.534469   3.736408   4.799538   5.596498   5.239748
    31  H    5.917534   4.945586   5.627673   6.270759   5.955327
    32  H    5.891682   4.800708   5.619955   6.541271   5.652773
    33  H    6.489075   5.205930   5.159364   5.612973   5.181880
    34  H    6.050215   4.594413   4.221603   4.796141   3.854171
    35  H    6.768945   5.347823   5.427123   6.184740   5.088383
    36  H    4.642758   4.467362   4.407429   3.917354   5.530415
    37  H    3.319113   3.323407   3.847478   3.758141   5.047919
    38  H    3.166847   2.970199   2.747407   2.227298   3.983288
    39  H    5.981127   5.222730   4.675113   4.257494   5.316706
    40  H    4.966031   4.025245   3.142037   2.779565   3.630463
    41  H    6.050268   4.915344   4.367669   4.362622   4.599864
    42  H    5.171122   4.614556   5.225032   5.471786   6.020653
    43  H    6.012500   5.454310   5.619344   5.523146   6.440373
    44  H    6.191509   5.275816   5.499256   5.736152   6.001046
                    6          7          8          9         10
     6  C    0.000000
     7  C    1.520738   0.000000
     8  O    4.567985   5.505905   0.000000
     9  N    4.128679   4.981119   1.470018   0.000000
    10  C    4.742809   5.172192   2.391696   1.514155   0.000000
    11  C    4.310782   4.437824   2.801010   2.467702   1.547132
    12  C    6.235579   6.657530   2.918356   2.577236   1.552091
    13  C    4.918341   5.132092   3.765911   2.497232   1.541890
    14  C    4.946643   5.976975   2.440341   1.527105   2.661542
    15  C    5.334965   6.605531   2.622356   2.517479   3.903709
    16  C    4.536734   5.536009   3.666779   2.467115   3.415814
    17  C    6.403417   7.306121   3.361091   2.608323   3.098943
    18  H    4.867101   5.930042   3.363553   4.532003   5.496332
    19  H    5.092016   6.382960   2.706949   3.779827   5.037410
    20  H    5.794671   6.810321   2.565560   4.005554   4.831504
    21  H    3.853759   4.538532   2.090063   2.962772   3.408631
    22  H    1.094353   2.185391   4.552177   3.832516   4.541019
    23  H    1.094015   2.187007   5.139883   4.892818   5.677209
    24  H    2.162836   1.093687   5.294930   4.608959   4.515355
    25  H    2.154108   1.094872   6.463871   5.829753   6.047641
    26  H    2.164272   1.093359   5.798728   5.515114   5.646398
    27  H    3.278809   3.355202   3.033106   2.619733   2.191013
    28  H    4.777186   5.000684   2.570724   2.832791   2.190411
    29  H    4.996605   4.820019   3.845193   3.414002   2.170167
    30  H    6.452328   7.014983   2.474301   2.703329   2.179895
    31  H    6.894765   7.370612   3.586475   3.042295   2.219676
    32  H    6.706652   6.905280   3.749070   3.475542   2.173059
    33  H    5.602262   5.953957   4.182604   2.839597   2.212132
    34  H    4.084247   4.228067   4.043359   2.709775   2.181042
    35  H    5.591399   5.540737   4.537694   3.436224   2.155832
    36  H    6.070144   7.372432   3.705648   3.451296   4.756386
    37  H    5.980308   7.214241   2.430411   2.835925   4.073743
    38  H    4.624562   6.006413   2.701799   2.742128   4.249836
    39  H    5.406784   6.466592   4.490020   3.429296   4.393072
    40  H    3.634225   4.763036   3.705965   2.661611   3.771395
    41  H    4.675853   5.406999   4.174388   2.769340   3.238126
    42  H    6.924236   7.820832   3.184062   2.875179   3.234978
    43  H    7.024219   8.022094   4.210859   3.519067   4.162434
    44  H    6.620083   7.332544   3.952384   2.952574   2.951812
                   11         12         13         14         15
    11  C    0.000000
    12  C    2.492783   0.000000
    13  C    2.484347   2.548639   0.000000
    14  C    3.927878   3.328732   3.139806   0.000000
    15  C    4.937441   4.413088   4.632761   1.546913   0.000000
    16  C    4.563297   4.416533   3.246441   1.547335   2.492386
    17  C    4.596095   3.093228   3.410426   1.549345   2.478178
    18  H    5.152626   6.110192   6.777713   5.284627   4.634533
    19  H    5.215801   5.571938   6.254556   4.059720   3.074827
    20  H    4.744429   5.022734   6.282415   4.680795   4.065250
    21  H    2.723369   4.167226   4.690710   4.269130   4.402521
    22  H    4.455205   6.064936   4.493963   4.374738   4.853063
    23  H    5.248952   7.127106   5.947469   5.589222   5.710087
    24  H    3.765031   5.975546   4.311721   5.675100   6.531981
    25  H    5.422703   7.563817   5.807341   6.672068   7.300729
    26  H    4.662544   7.039552   5.803460   6.653149   7.189580
    27  H    1.092349   3.459053   2.812989   4.074800   4.994126
    28  H    1.094128   2.646523   3.447113   4.308988   5.056876
    29  H    1.095790   2.783906   2.619450   4.772850   5.912928
    30  H    2.871500   1.094164   3.481467   3.438236   4.165031
    31  H    3.451759   1.091141   2.719203   3.305460   4.457029
    32  H    2.554482   1.096181   2.911700   4.374338   5.485444
    33  H    3.470465   2.836808   1.092122   2.924908   4.470632
    34  H    2.723766   3.503045   1.095161   3.370535   4.781663
    35  H    2.669041   2.753560   1.095503   4.178562   5.662052
    36  H    5.911934   5.192015   5.268425   2.153903   1.096215
    37  H    5.037395   4.256336   5.063169   2.193784   1.092038
    38  H    5.013134   5.009544   4.998476   2.197274   1.090785
    39  H    5.624225   5.210416   4.163972   2.174971   2.695478
    40  H    4.609590   4.988647   3.706116   2.171715   2.717523
    41  H    4.388526   4.286270   2.589270   2.211618   3.474184
    42  H    4.630262   2.773493   3.903007   2.192245   2.748927
    43  H    5.652300   4.167059   4.326738   2.160575   2.627306
    44  H    4.497744   2.888761   2.846251   2.220803   3.465218
                   16         17         18         19         20
    16  C    0.000000
    17  C    2.540921   0.000000
    18  H    6.120650   6.453528   0.000000
    19  H    4.978055   5.153472   1.778618   0.000000
    20  H    5.881422   5.504651   1.778313   1.780203   0.000000
    21  H    5.107416   5.363053   2.483317   3.073909   2.533407
    22  H    3.691595   5.808706   5.357392   5.219015   6.099524
    23  H    5.174868   7.106846   4.764649   5.093455   5.965152
    24  H    5.269616   6.860279   6.279286   6.627536   6.897125
    25  H    6.011015   7.998880   6.838152   7.229156   7.797793
    26  H    6.397572   7.985078   5.773679   6.523987   6.768519
    27  H    4.432924   5.036897   4.878131   5.076296   4.855518
    28  H    5.197873   4.946587   4.572092   4.816286   4.018352
    29  H    5.302893   5.239788   6.158054   6.298704   5.723305
    30  H    4.772121   3.266257   5.473659   4.930427   4.183550
    31  H    4.327225   2.585166   6.896448   6.128592   5.740088
    32  H    5.346865   4.131445   6.711405   6.399847   5.651883
    33  H    2.911282   2.826485   7.346272   6.578084   6.741944
    34  H    3.062137   4.003034   6.706961   6.272675   6.499212
    35  H    4.323258   4.257807   7.499747   7.127419   6.955705
    36  H    2.670474   2.671523   5.555511   3.895570   5.015997
    37  H    3.463953   2.710792   4.355916   2.754726   3.431475
    38  H    2.749023   3.455610   3.966332   2.470056   3.808249
    39  H    1.096605   2.751387   6.805166   5.477275   6.531682
    40  H    1.093963   3.487336   5.626070   4.629171   5.703558
    41  H    1.091773   2.838920   6.839049   5.855001   6.580691
    42  H    3.499484   1.093766   6.254586   4.987098   5.051167
    43  H    2.768758   1.095900   7.049507   5.574895   6.140894
    44  H    2.804588   1.092871   7.206490   6.050582   6.284539
                   21         22         23         24         25
    21  H    0.000000
    22  H    4.340362   0.000000
    23  H    4.303675   1.774996   0.000000
    24  H    4.506121   2.521602   3.088656   0.000000
    25  H    5.599126   2.536156   2.530405   1.777225   0.000000
    26  H    4.457058   3.088421   2.533563   1.774964   1.776882
    27  H    2.521067   3.527980   4.234272   2.752605   4.359973
    28  H    2.170666   5.070894   5.582644   4.480247   6.054284
    29  H    3.687845   5.147050   5.988783   3.978831   5.738400
    30  H    3.794869   6.372596   7.235746   6.459770   7.983081
    31  H    5.115743   6.571568   7.791252   6.664649   8.203132
    32  H    4.581315   6.634099   7.645623   6.127490   7.821257
    33  H    5.459234   5.010034   6.580948   5.187813   6.541959
    34  H    4.682300   3.596295   5.133011   3.420581   4.807920
    35  H    5.239455   5.273287   6.661219   4.589939   6.202374
    36  H    5.489492   5.456227   6.388942   7.315281   7.967627
    37  H    4.288498   5.647178   6.341957   7.121368   8.003620
    38  H    4.040521   4.217240   4.845669   6.099125   6.673585
    39  H    6.055329   4.493277   5.929517   6.257844   6.847624
    40  H    4.777475   2.753497   4.170091   4.675989   5.189766
    41  H    5.484163   3.800332   5.463234   4.962410   5.823194
    42  H    5.233012   6.466042   7.607567   7.374000   8.608785
    43  H    6.238497   6.330974   7.642886   7.643076   8.635675
    44  H    5.802089   5.990757   7.436366   6.747218   7.984413
                   26         27         28         29         30
    26  H    0.000000
    27  H    3.598890   0.000000
    28  H    5.035682   1.780000   0.000000
    29  H    5.004410   1.782351   1.766501   0.000000
    30  H    7.300465   3.798729   2.615082   3.367501   0.000000
    31  H    7.860069   4.341303   3.723074   3.665867   1.780261
    32  H    7.196817   3.625234   2.663953   2.421974   1.773911
    33  H    6.711927   3.828870   4.337137   3.643546   3.762308
    34  H    5.005970   2.607597   3.773021   2.930782   4.325640
    35  H    6.125064   3.142632   3.624003   2.335042   3.795842
    36  H    8.034920   5.964501   6.099689   6.840765   5.006050
    37  H    7.679791   5.252711   4.939706   6.014760   3.757193
    38  H    6.548564   4.851871   5.107784   6.053573   4.748731
    39  H    7.359759   5.527336   6.222295   6.350050   5.518673
    40  H    5.630255   4.231922   5.219157   5.422893   5.271886
    41  H    6.327160   4.287781   5.197519   4.935362   4.876462
    42  H    8.386667   5.231094   4.757646   5.272527   2.649122
    43  H    8.758333   6.017965   6.005370   6.309844   4.284562
    44  H    8.053567   5.005457   5.011339   4.937393   3.396972
                   31         32         33         34         35
    31  H    0.000000
    32  H    1.764864   0.000000
    33  H    2.574931   3.357218   0.000000
    34  H    3.766192   3.865957   1.779061   0.000000
    35  H    2.938454   2.692156   1.762606   1.777070   0.000000
    36  H    5.040745   6.283733   4.906445   5.403181   6.311079
    37  H    4.341888   5.310066   4.955984   5.378621   6.002162
    38  H    5.230415   6.024296   5.006057   4.938327   6.046408
    39  H    4.948277   6.181959   3.619007   4.034100   5.203181
    40  H    5.099044   5.872871   3.641343   3.248300   4.775080
    41  H    4.135546   5.080254   2.152174   2.337968   3.586680
    42  H    2.286120   3.803010   3.479711   4.639664   4.618912
    43  H    3.564069   5.190123   3.601784   4.813332   5.189105
    44  H    2.166697   3.774877   2.046066   3.563167   3.551220
                   36         37         38         39         40
    36  H    0.000000
    37  H    1.777384   0.000000
    38  H    1.770645   1.778138   0.000000
    39  H    2.405930   3.697707   3.052962   0.000000
    40  H    3.015771   3.739299   2.518874   1.777831   0.000000
    41  H    3.680690   4.350228   3.774802   1.768826   1.776487
    42  H    3.078501   2.526524   3.761853   3.761573   4.332634
    43  H    2.349877   2.944560   3.645798   2.526449   3.743708
    44  H    3.657049   3.760347   4.352185   3.085801   3.826657
                   41         42         43         44
    41  H    0.000000
    42  H    3.841849   0.000000
    43  H    3.188055   1.770440   0.000000
    44  H    2.665669   1.780034   1.762665   0.000000
 Stoichiometry    C13H27NO3
 Framework group  C1[X(C13H27NO3)]
 Deg. of freedom   126
 Full point group                 C1      NOp   1
 Largest Abelian subgroup         C1      NOp   1
 Largest concise Abelian subgroup C1      NOp   1
                         Standard orientation:                         
 ---------------------------------------------------------------------
 Center     Atomic      Atomic             Coordinates (Angstroms)
 Number     Number       Type             X           Y           Z
 ---------------------------------------------------------------------
      1          6           0       -0.831705   -2.633105   -1.834401
      2          6           0       -0.789847   -1.180507   -1.372299
      3          6           0       -1.628901   -0.960786   -0.109963
      4          8           0       -1.711660   -1.735520    0.850239
      5          8           0       -2.370531    0.181220   -0.194618
      6          6           0       -3.153230    0.570131    0.989261
      7          6           0       -3.756418    1.933112    0.687450
      8          8           0        0.623235   -0.850558   -1.152336
      9          7           0        0.815673    0.097145   -0.045187
     10          6           0        1.207229    1.418527   -0.672323
     11          6           0        0.046722    1.853976   -1.598188
     12          6           0        2.489221    1.358642   -1.545190
     13          6           0        1.338277    2.493298    0.425456
     14          6           0        1.660173   -0.569159    1.038745
     15          6           0        1.463793   -2.102870    0.992875
     16          6           0        1.110662   -0.074960    2.398175
     17          6           0        3.187535   -0.322791    0.955450
     18          1           0       -1.842557   -2.907520   -2.153469
     19          1           0       -0.525069   -3.298537   -1.024393
     20          1           0       -0.150186   -2.761345   -2.679691
     21          1           0       -1.185998   -0.512593   -2.142698
     22          1           0       -2.477964    0.595276    1.850070
     23          1           0       -3.914910   -0.194124    1.169890
     24          1           0       -2.969143    2.669535    0.502974
     25          1           0       -4.356984    2.269917    1.538701
     26          1           0       -4.399666    1.884372   -0.195324
     27          1           0       -0.915932    1.762262   -1.090141
     28          1           0        0.027235    1.249499   -2.509969
     29          1           0        0.196188    2.897595   -1.896977
     30          1           0        2.486974    0.441505   -2.141888
     31          1           0        3.408298    1.400817   -0.958583
     32          1           0        2.495173    2.213116   -2.231814
     33          1           0        2.170677    2.310014    1.108280
     34          1           0        0.412464    2.561765    1.006456
     35          1           0        1.517377    3.460942   -0.055912
     36          1           0        1.989976   -2.536485    1.851244
     37          1           0        1.879567   -2.528801    0.077309
     38          1           0        0.410433   -2.376186    1.067324
     39          1           0        1.637559   -0.584960    3.213541
     40          1           0        0.045796   -0.315365    2.469032
     41          1           0        1.237476    1.000300    2.538538
     42          1           0        3.586819   -0.668090   -0.002498
     43          1           0        3.673141   -0.899797    1.750590
     44          1           0        3.464136    0.724685    1.099159
 ---------------------------------------------------------------------
 Rotational constants (GHZ):           0.5513066           0.3824735           0.3358475
 Leave Link  202 at Tue Jan  7 18:11:31 2025, MaxMem=  4026531840 cpu:               0.1 elap:               0.0
 (Enter /usr/local/intel/g16/l301.exe)
 Standard basis: def2TZVP (5D, 7F)
 Ernie: Thresh=  0.10000D-02 Tol=  0.10000D-05 Strict=F.
 There are   774 symmetry adapted cartesian basis functions of A   symmetry.
 There are   689 symmetry adapted basis functions of A   symmetry.
   689 basis functions,  1083 primitive gaussians,   774 cartesian basis functions
    68 alpha electrons       68 beta electrons
       nuclear repulsion energy      1464.8733618819 Hartrees.
 IExCor= 4336 DFT=T Ex+Corr=M062X ExCW=0 ScaHFX=  0.540000
 ScaDFX=  1.000000  1.000000  1.000000  1.000000 ScalE2=  1.000000  1.000000
 IRadAn=      5 IRanWt=     -1 IRanGd=            0 ICorTp=0 IEmpDi=  4
 NAtoms=   44 NActive=   44 NUniq=   44 SFac= 1.00D+00 NAtFMM=   60 NAOKFM=F Big=F
 Integral buffers will be    131072 words long.
 Raffenetti 2 integral format.
 Two-electron integral symmetry is turned on.
 Leave Link  301 at Tue Jan  7 18:11:31 2025, MaxMem=  4026531840 cpu:               1.1 elap:               0.1
 (Enter /usr/local/intel/g16/l302.exe)
 NPDir=0 NMtPBC=     1 NCelOv=     1 NCel=       1 NClECP=     1 NCelD=      1
         NCelK=      1 NCelE2=     1 NClLst=     1 CellRange=     0.0.
 One-electron integrals computed using PRISM.
 One-electron integral symmetry used in STVInt
   1 Symmetry operations used in ECPInt.
 ECPInt:  NShTT=   43660 NPrTT=  126708 LenC2=   40861 LenP2D=   87338.
 LDataN:  DoStor=T MaxTD1= 6 Len=  172
 NBasis=   689 RedAO= T EigKep=  7.83D-05  NBF=   689
 NBsUse=   689 1.00D-06 EigRej= -1.00D+00 NBFU=   689
 Precomputing XC quadrature grid using
 IXCGrd= 4 IRadAn=           5 IRanWt=          -1 IRanGd=           0 AccXCQ= 0.00D+00.
 Generated NRdTot=       0 NPtTot=           0 NUsed=           0 NTot=          32
 NSgBfM=   767   767   767   767   767 MxSgAt=    44 MxSgA2=    44.
 Leave Link  302 at Tue Jan  7 18:11:33 2025, MaxMem=  4026531840 cpu:              34.6 elap:               1.7
 (Enter /usr/local/intel/g16/l303.exe)
 DipDrv:  MaxL=1.
 Leave Link  303 at Tue Jan  7 18:11:34 2025, MaxMem=  4026531840 cpu:               4.3 elap:               0.3
 (Enter /usr/local/intel/g16/l401.exe)
 ExpMin= 9.52D-02 ExpMax= 2.70D+04 ExpMxC= 9.22D+02 IAcc=3 IRadAn=         5 AccDes= 0.00D+00
 Harris functional with IExCor= 1009 and IRadAn=       5 diagonalized for initial guess.
 HarFok:  IExCor= 1009 AccDes= 0.00D+00 IRadAn=         5 IDoV= 1 UseB2=F ITyADJ=14
 ICtDFT=  3500011 ScaDFX=  1.000000  1.000000  1.000000  1.000000
 FoFCou: FMM=F IPFlag=           0 FMFlag=      100000 FMFlg1=           0
         NFxFlg=           0 DoJE=T BraDBF=F KetDBF=T FulRan=T
         wScrn=  0.000000 ICntrl=       500 IOpCl=  0 I1Cent=   200000004 NGrid=           0
         NMat0=    1 NMatS0=      1 NMatT0=    0 NMatD0=    1 NMtDS0=    0 NMtDT0=    0
 Petite list used in FoFCou.
 Harris En= -791.709407797150    
 JPrj=0 DoOrth=F DoCkMO=F.
 Leave Link  401 at Tue Jan  7 18:11:39 2025, MaxMem=  4026531840 cpu:             105.0 elap:               5.3
 (Enter /usr/local/intel/g16/l502.exe)
 Integral symmetry usage will be decided dynamically.
 Closed shell SCF:
 Using DIIS extrapolation, IDIIS=  1040.
 NGot=  4026531840 LenX=  4025310038 LenY=  4024710188
 Requested convergence on RMS density matrix=1.00D-08 within 128 cycles.
 Requested convergence on MAX density matrix=1.00D-06.
 Requested convergence on             energy=1.00D-06.
 No special actions if energy rises.
 Fock matrices will be formed incrementally for  20 cycles.
 Integral accuracy reduced to 1.0D-05 until final iterations.

 Cycle   1  Pass 0  IDiag  1:
 FoFJK:  IHMeth= 1 ICntrl=       0 DoSepK=F KAlg= 0 I1Cent=           0 FoldK=F
 IRaf= 880000000 NMat=       1 IRICut=       1 DoRegI=T DoRafI=F ISym2E= 0 IDoP0=0 IntGTp=1.
 FoFCou: FMM=F IPFlag=           0 FMFlag=      100000 FMFlg1=           0
         NFxFlg=           0 DoJE=F BraDBF=F KetDBF=F FulRan=T
         wScrn=  0.000000 ICntrl=         0 IOpCl=  0 I1Cent=           0 NGrid=           0
         NMat0=    1 NMatS0=      1 NMatT0=    0 NMatD0=    1 NMtDS0=    0 NMtDT0=    0
 Symmetry not used in FoFCou.
 E= -791.316316317554    
 DIIS: error= 2.62D-02 at cycle   1 NSaved=   1.
 NSaved= 1 IEnMin= 1 EnMin= -791.316316317554     IErMin= 1 ErrMin= 2.62D-02
 ErrMax= 2.62D-02  0.00D+00 EMaxC= 1.00D-01 BMatC= 7.69D-01 BMatP= 7.69D-01
 IDIUse=3 WtCom= 7.38D-01 WtEn= 2.62D-01
 Coeff-Com:  0.100D+01
 Coeff-En:   0.100D+01
 Coeff:      0.100D+01
 Gap=     0.311 Goal=   None    Shift=    0.000
 GapD=    0.311 DampG=1.000 DampE=0.500 DampFc=0.5000 IDamp=-1.
 Damping current iteration by 5.00D-01
 RMSDP=1.93D-03 MaxDP=9.77D-02              OVMax= 1.71D-01

 Cycle   2  Pass 0  IDiag  1:
 RMSU=  9.55D-04    CP:  9.77D-01
 E= -791.635041257647     Delta-E=       -0.318724940093 Rises=F Damp=T
 DIIS: error= 5.17D-03 at cycle   2 NSaved=   2.
 NSaved= 2 IEnMin= 2 EnMin= -791.635041257647     IErMin= 2 ErrMin= 5.17D-03
 ErrMax= 5.17D-03  0.00D+00 EMaxC= 1.00D-01 BMatC= 5.51D-02 BMatP= 7.69D-01
 IDIUse=3 WtCom= 9.48D-01 WtEn= 5.17D-02
 Coeff-Com: -0.573D-01 0.106D+01
 Coeff-En:   0.000D+00 0.100D+01
 Coeff:     -0.544D-01 0.105D+01
 Gap=     0.345 Goal=   None    Shift=    0.000
 RMSDP=6.35D-04 MaxDP=3.22D-02 DE=-3.19D-01 OVMax= 9.43D-02

 Cycle   3  Pass 0  IDiag  1:
 RMSU=  6.25D-04    CP:  9.75D-01  1.12D+00
 E= -791.930000013428     Delta-E=       -0.294958755781 Rises=F Damp=F
 DIIS: error= 4.46D-03 at cycle   3 NSaved=   3.
 NSaved= 3 IEnMin= 3 EnMin= -791.930000013428     IErMin= 3 ErrMin= 4.46D-03
 ErrMax= 4.46D-03  0.00D+00 EMaxC= 1.00D-01 BMatC= 3.47D-02 BMatP= 5.51D-02
 IDIUse=3 WtCom= 9.55D-01 WtEn= 4.46D-02
 Coeff-Com: -0.779D-01 0.485D+00 0.593D+00
 Coeff-En:   0.000D+00 0.000D+00 0.100D+01
 Coeff:     -0.744D-01 0.463D+00 0.611D+00
 Gap=     0.315 Goal=   None    Shift=    0.000
 RMSDP=2.65D-04 MaxDP=2.47D-02 DE=-2.95D-01 OVMax= 4.47D-02

 Cycle   4  Pass 0  IDiag  1:
 RMSU=  2.45D-04    CP:  9.76D-01  1.16D+00  8.49D-01
 E= -791.948808292954     Delta-E=       -0.018808279526 Rises=F Damp=F
 DIIS: error= 2.20D-03 at cycle   4 NSaved=   4.
 NSaved= 4 IEnMin= 4 EnMin= -791.948808292954     IErMin= 4 ErrMin= 2.20D-03
 ErrMax= 2.20D-03  0.00D+00 EMaxC= 1.00D-01 BMatC= 8.58D-03 BMatP= 3.47D-02
 IDIUse=3 WtCom= 9.78D-01 WtEn= 2.20D-02
 Coeff-Com: -0.278D-01 0.788D-01 0.352D+00 0.597D+00
 Coeff-En:   0.000D+00 0.000D+00 0.213D+00 0.787D+00
 Coeff:     -0.272D-01 0.771D-01 0.349D+00 0.601D+00
 Gap=     0.310 Goal=   None    Shift=    0.000
 RMSDP=1.03D-04 MaxDP=8.44D-03 DE=-1.88D-02 OVMax= 1.54D-02

 Cycle   5  Pass 0  IDiag  1:
 RMSU=  5.61D-05    CP:  9.74D-01  1.16D+00  9.07D-01  6.81D-01
 E= -791.954935562918     Delta-E=       -0.006127269964 Rises=F Damp=F
 DIIS: error= 3.60D-04 at cycle   5 NSaved=   5.
 NSaved= 5 IEnMin= 5 EnMin= -791.954935562918     IErMin= 5 ErrMin= 3.60D-04
 ErrMax= 3.60D-04  0.00D+00 EMaxC= 1.00D-01 BMatC= 2.11D-04 BMatP= 8.58D-03
 IDIUse=3 WtCom= 9.96D-01 WtEn= 3.60D-03
 Coeff-Com: -0.854D-02 0.171D-01 0.130D+00 0.264D+00 0.597D+00
 Coeff-En:   0.000D+00 0.000D+00 0.000D+00 0.000D+00 0.100D+01
 Coeff:     -0.851D-02 0.171D-01 0.130D+00 0.263D+00 0.599D+00
 Gap=     0.311 Goal=   None    Shift=    0.000
 RMSDP=2.06D-05 MaxDP=1.37D-03 DE=-6.13D-03 OVMax= 3.01D-03

 Cycle   6  Pass 0  IDiag  1:
 RMSU=  1.64D-05    CP:  9.74D-01  1.16D+00  9.13D-01  7.00D-01  8.07D-01
 E= -791.955087454219     Delta-E=       -0.000151891301 Rises=F Damp=F
 DIIS: error= 9.93D-05 at cycle   6 NSaved=   6.
 NSaved= 6 IEnMin= 6 EnMin= -791.955087454219     IErMin= 6 ErrMin= 9.93D-05
 ErrMax= 9.93D-05  0.00D+00 EMaxC= 1.00D-01 BMatC= 2.25D-05 BMatP= 2.11D-04
 IDIUse=1 WtCom= 1.00D+00 WtEn= 0.00D+00
 Coeff-Com: -0.213D-03-0.209D-02 0.154D-01 0.446D-01 0.272D+00 0.671D+00
 Coeff:     -0.213D-03-0.209D-02 0.154D-01 0.446D-01 0.272D+00 0.671D+00
 Gap=     0.312 Goal=   None    Shift=    0.000
 RMSDP=8.47D-06 MaxDP=5.68D-04 DE=-1.52D-04 OVMax= 8.02D-04

 Initial convergence to 1.0D-05 achieved.  Increase integral accuracy.
 Cycle   7  Pass 1  IDiag  1:
 E= -791.955150486238     Delta-E=       -0.000063032019 Rises=F Damp=F
 DIIS: error= 1.12D-04 at cycle   1 NSaved=   1.
 NSaved= 1 IEnMin= 1 EnMin= -791.955150486238     IErMin= 1 ErrMin= 1.12D-04
 ErrMax= 1.12D-04  0.00D+00 EMaxC= 1.00D-01 BMatC= 1.39D-05 BMatP= 1.39D-05
 IDIUse=3 WtCom= 9.99D-01 WtEn= 1.12D-03
 Coeff-Com:  0.100D+01
 Coeff-En:   0.100D+01
 Coeff:      0.100D+01
 Gap=     0.312 Goal=   None    Shift=    0.000
 RMSDP=8.47D-06 MaxDP=5.68D-04 DE=-6.30D-05 OVMax= 4.46D-04

 Cycle   8  Pass 1  IDiag  1:
 RMSU=  8.49D-05    CP:  1.00D+00
 E= -791.955157972214     Delta-E=       -0.000007485976 Rises=F Damp=F
 DIIS: error= 2.86D-05 at cycle   2 NSaved=   2.
 NSaved= 2 IEnMin= 2 EnMin= -791.955157972214     IErMin= 2 ErrMin= 2.86D-05
 ErrMax= 2.86D-05  0.00D+00 EMaxC= 1.00D-01 BMatC= 1.45D-06 BMatP= 1.39D-05
 IDIUse=1 WtCom= 1.00D+00 WtEn= 0.00D+00
 Coeff-Com:  0.136D+00 0.864D+00
 Coeff:      0.136D+00 0.864D+00
 Gap=     0.312 Goal=   None    Shift=    0.000
 RMSDP=4.36D-06 MaxDP=1.95D-04 DE=-7.49D-06 OVMax= 3.40D-04

 Cycle   9  Pass 1  IDiag  1:
 RMSU=  3.52D-06    CP:  1.00D+00  1.03D+00
 E= -791.955158050948     Delta-E=       -0.000000078734 Rises=F Damp=F
 DIIS: error= 2.89D-05 at cycle   3 NSaved=   3.
 NSaved= 3 IEnMin= 3 EnMin= -791.955158050948     IErMin= 2 ErrMin= 2.86D-05
 ErrMax= 2.89D-05  0.00D+00 EMaxC= 1.00D-01 BMatC= 1.45D-06 BMatP= 1.45D-06
 IDIUse=1 WtCom= 1.00D+00 WtEn= 0.00D+00
 Coeff-Com: -0.869D-02 0.501D+00 0.507D+00
 Coeff:     -0.869D-02 0.501D+00 0.507D+00
 Gap=     0.312 Goal=   None    Shift=    0.000
 RMSDP=1.63D-06 MaxDP=7.71D-05 DE=-7.87D-08 OVMax= 1.73D-04

 Cycle  10  Pass 1  IDiag  1:
 RMSU=  7.77D-07    CP:  1.00D+00  1.04D+00  6.28D-01
 E= -791.955159141260     Delta-E=       -0.000001090312 Rises=F Damp=F
 DIIS: error= 3.16D-06 at cycle   4 NSaved=   4.
 NSaved= 4 IEnMin= 4 EnMin= -791.955159141260     IErMin= 4 ErrMin= 3.16D-06
 ErrMax= 3.16D-06  0.00D+00 EMaxC= 1.00D-01 BMatC= 1.63D-08 BMatP= 1.45D-06
 IDIUse=1 WtCom= 1.00D+00 WtEn= 0.00D+00
 Coeff-Com: -0.620D-02 0.204D+00 0.223D+00 0.579D+00
 Coeff:     -0.620D-02 0.204D+00 0.223D+00 0.579D+00
 Gap=     0.312 Goal=   None    Shift=    0.000
 RMSDP=2.02D-07 MaxDP=9.74D-06 DE=-1.09D-06 OVMax= 2.51D-05

 Cycle  11  Pass 1  IDiag  1:
 RMSU=  1.94D-07    CP:  1.00D+00  1.04D+00  6.30D-01  1.01D+00
 E= -791.955159155694     Delta-E=       -0.000000014434 Rises=F Damp=F
 DIIS: error= 1.33D-06 at cycle   5 NSaved=   5.
 NSaved= 5 IEnMin= 5 EnMin= -791.955159155694     IErMin= 5 ErrMin= 1.33D-06
 ErrMax= 1.33D-06  0.00D+00 EMaxC= 1.00D-01 BMatC= 2.20D-09 BMatP= 1.63D-08
 IDIUse=1 WtCom= 1.00D+00 WtEn= 0.00D+00
 Coeff-Com: -0.507D-03-0.274D-01-0.222D-01 0.204D+00 0.846D+00
 Coeff:     -0.507D-03-0.274D-01-0.222D-01 0.204D+00 0.846D+00
 Gap=     0.312 Goal=   None    Shift=    0.000
 RMSDP=1.19D-07 MaxDP=8.58D-06 DE=-1.44D-08 OVMax= 1.50D-05

 Cycle  12  Pass 1  IDiag  1:
 RMSU=  8.96D-08    CP:  1.00D+00  1.04D+00  6.40D-01  1.10D+00  1.06D+00
 E= -791.955159158164     Delta-E=       -0.000000002470 Rises=F Damp=F
 DIIS: error= 8.58D-07 at cycle   6 NSaved=   6.
 NSaved= 6 IEnMin= 6 EnMin= -791.955159158164     IErMin= 6 ErrMin= 8.58D-07
 ErrMax= 8.58D-07  0.00D+00 EMaxC= 1.00D-01 BMatC= 6.59D-10 BMatP= 2.20D-09
 IDIUse=1 WtCom= 1.00D+00 WtEn= 0.00D+00
 Coeff-Com:  0.108D-02-0.581D-01-0.597D-01 0.150D-02 0.462D+00 0.653D+00
 Coeff:      0.108D-02-0.581D-01-0.597D-01 0.150D-02 0.462D+00 0.653D+00
 Gap=     0.312 Goal=   None    Shift=    0.000
 RMSDP=4.41D-08 MaxDP=3.17D-06 DE=-2.47D-09 OVMax= 1.25D-05

 Cycle  13  Pass 1  IDiag  1:
 RMSU=  3.57D-08    CP:  1.00D+00  1.04D+00  6.42D-01  1.12D+00  1.13D+00
                    CP:  1.03D+00
 E= -791.955159158824     Delta-E=       -0.000000000661 Rises=F Damp=F
 DIIS: error= 2.15D-07 at cycle   7 NSaved=   7.
 NSaved= 7 IEnMin= 7 EnMin= -791.955159158824     IErMin= 7 ErrMin= 2.15D-07
 ErrMax= 2.15D-07  0.00D+00 EMaxC= 1.00D-01 BMatC= 5.64D-11 BMatP= 6.59D-10
 IDIUse=1 WtCom= 1.00D+00 WtEn= 0.00D+00
 Coeff-Com:  0.516D-03-0.234D-01-0.249D-01-0.175D-01 0.115D+00 0.295D+00
 Coeff-Com:  0.655D+00
 Coeff:      0.516D-03-0.234D-01-0.249D-01-0.175D-01 0.115D+00 0.295D+00
 Coeff:      0.655D+00
 Gap=     0.312 Goal=   None    Shift=    0.000
 RMSDP=1.54D-08 MaxDP=1.18D-06 DE=-6.61D-10 OVMax= 2.11D-06

 Cycle  14  Pass 1  IDiag  1:
 RMSU=  1.15D-08    CP:  1.00D+00  1.04D+00  6.42D-01  1.12D+00  1.14D+00
                    CP:  1.13D+00  1.04D+00
 E= -791.955159158862     Delta-E=       -0.000000000038 Rises=F Damp=F
 DIIS: error= 5.75D-08 at cycle   8 NSaved=   8.
 NSaved= 8 IEnMin= 8 EnMin= -791.955159158862     IErMin= 8 ErrMin= 5.75D-08
 ErrMax= 5.75D-08  0.00D+00 EMaxC= 1.00D-01 BMatC= 6.22D-12 BMatP= 5.64D-11
 IDIUse=1 WtCom= 1.00D+00 WtEn= 0.00D+00
 Coeff-Com:  0.384D-04-0.270D-03-0.625D-03-0.524D-02-0.225D-01 0.288D-01
 Coeff-Com:  0.269D+00 0.731D+00
 Coeff:      0.384D-04-0.270D-03-0.625D-03-0.524D-02-0.225D-01 0.288D-01
 Coeff:      0.269D+00 0.731D+00
 Gap=     0.312 Goal=   None    Shift=    0.000
 RMSDP=6.32D-09 MaxDP=3.07D-07 DE=-3.77D-11 OVMax= 1.05D-06

 SCF Done:  E(RM062X) =  -791.955159159     A.U. after   14 cycles
            NFock= 14  Conv=0.63D-08     -V/T= 2.0060
 KE= 7.872217118347D+02 PE=-4.774603301820D+03 EE= 1.730553068945D+03
 Leave Link  502 at Tue Jan  7 18:20:04 2025, MaxMem=  4026531840 cpu:           10093.2 elap:             504.9
 (Enter /usr/local/intel/g16/l601.exe)
 Copying SCF densities to generalized density rwf, IOpCl= 0 IROHF=0.

 **********************************************************************

            Population analysis using the SCF Density.

 **********************************************************************

 Orbital symmetries:
       Occupied  (A) (A) (A) (A) (A) (A) (A) (A) (A) (A) (A) (A)
                 (A) (A) (A) (A) (A) (A) (A) (A) (A) (A) (A) (A)
                 (A) (A) (A) (A) (A) (A) (A) (A) (A) (A) (A) (A)
                 (A) (A) (A) (A) (A) (A) (A) (A) (A) (A) (A) (A)
                 (A) (A) (A) (A) (A) (A) (A) (A) (A) (A) (A) (A)
                 (A) (A) (A) (A) (A) (A) (A) (A)
       Virtual   (A) (A) (A) (A) (A) (A) (A) (A) (A) (A) (A) (A)
                 (A) (A) (A) (A) (A) (A) (A) (A) (A) (A) (A) (A)
                 (A) (A) (A) (A) (A) (A) (A) (A) (A) (A) (A) (A)
                 (A) (A) (A) (A) (A) (A) (A) (A) (A) (A) (A) (A)
                 (A) (A) (A) (A) (A) (A) (A) (A) (A) (A) (A) (A)
                 (A) (A) (A) (A) (A) (A) (A) (A) (A) (A) (A) (A)
                 (A) (A) (A) (A) (A) (A) (A) (A) (A) (A) (A) (A)
                 (A) (A) (A) (A) (A) (A) (A) (A) (A) (A) (A) (A)
                 (A) (A) (A) (A) (A) (A) (A) (A) (A) (A) (A) (A)
                 (A) (A) (A) (A) (A) (A) (A) (A) (A) (A) (A) (A)
                 (A) (A) (A) (A) (A) (A) (A) (A) (A) (A) (A) (A)
                 (A) (A) (A) (A) (A) (A) (A) (A) (A) (A) (A) (A)
                 (A) (A) (A) (A) (A) (A) (A) (A) (A) (A) (A) (A)
                 (A) (A) (A) (A) (A) (A) (A) (A) (A) (A) (A) (A)
                 (A) (A) (A) (A) (A) (A) (A) (A) (A) (A) (A) (A)
                 (A) (A) (A) (A) (A) (A) (A) (A) (A) (A) (A) (A)
                 (A) (A) (A) (A) (A) (A) (A) (A) (A) (A) (A) (A)
                 (A) (A) (A) (A) (A) (A) (A) (A) (A) (A) (A) (A)
                 (A) (A) (A) (A) (A) (A) (A) (A) (A) (A) (A) (A)
                 (A) (A) (A) (A) (A) (A) (A) (A) (A) (A) (A) (A)
                 (A) (A) (A) (A) (A) (A) (A) (A) (A) (A) (A) (A)
                 (A) (A) (A) (A) (A) (A) (A) (A) (A) (A) (A) (A)
                 (A) (A) (A) (A) (A) (A) (A) (A) (A) (A) (A) (A)
                 (A) (A) (A) (A) (A) (A) (A) (A) (A) (A) (A) (A)
                 (A) (A) (A) (A) (A) (A) (A) (A) (A) (A) (A) (A)
                 (A) (A) (A) (A) (A) (A) (A) (A) (A) (A) (A) (A)
                 (A) (A) (A) (A) (A) (A) (A) (A) (A) (A) (A) (A)
                 (A) (A) (A) (A) (A) (A) (A) (A) (A) (A) (A) (A)
                 (A) (A) (A) (A) (A) (A) (A) (A) (A) (A) (A) (A)
                 (A) (A) (A) (A) (A) (A) (A) (A) (A) (A) (A) (A)
                 (A) (A) (A) (A) (A) (A) (A) (A) (A) (A) (A) (A)
                 (A) (A) (A) (A) (A) (A) (A) (A) (A) (A) (A) (A)
                 (A) (A) (A) (A) (A) (A) (A) (A) (A) (A) (A) (A)
                 (A) (A) (A) (A) (A) (A) (A) (A) (A) (A) (A) (A)
                 (A) (A) (A) (A) (A) (A) (A) (A) (A) (A) (A) (A)
                 (A) (A) (A) (A) (A) (A) (A) (A) (A) (A) (A) (A)
                 (A) (A) (A) (A) (A) (A) (A) (A) (A) (A) (A) (A)
                 (A) (A) (A) (A) (A) (A) (A) (A) (A) (A) (A) (A)
                 (A) (A) (A) (A) (A) (A) (A) (A) (A) (A) (A) (A)
                 (A) (A) (A) (A) (A) (A) (A) (A) (A) (A) (A) (A)
                 (A) (A) (A) (A) (A) (A) (A) (A) (A) (A) (A) (A)
                 (A) (A) (A) (A) (A) (A) (A) (A) (A) (A) (A) (A)
                 (A) (A) (A) (A) (A) (A) (A) (A) (A) (A) (A) (A)
                 (A) (A) (A) (A) (A) (A) (A) (A) (A) (A) (A) (A)
                 (A) (A) (A) (A) (A) (A) (A) (A) (A) (A) (A) (A)
                 (A) (A) (A) (A) (A) (A) (A) (A) (A) (A) (A) (A)
                 (A) (A) (A) (A) (A) (A) (A) (A) (A) (A) (A) (A)
                 (A) (A) (A) (A) (A) (A) (A) (A) (A) (A) (A) (A)
                 (A) (A) (A) (A) (A) (A) (A) (A) (A) (A) (A) (A)
                 (A) (A) (A) (A) (A) (A) (A) (A) (A) (A) (A) (A)
                 (A) (A) (A) (A) (A) (A) (A) (A) (A) (A) (A) (A)
                 (A) (A) (A) (A) (A) (A) (A) (A) (A)
 The electronic state is 1-A.
 Alpha  occ. eigenvalues --  -19.67203 -19.65356 -19.61897 -14.78731 -10.67914
 Alpha  occ. eigenvalues --  -10.60511 -10.60115 -10.58000 -10.57708 -10.53980
 Alpha  occ. eigenvalues --  -10.53212 -10.52731 -10.51995 -10.51676 -10.51672
 Alpha  occ. eigenvalues --  -10.51538 -10.50750  -1.21898  -1.16789  -1.12692
 Alpha  occ. eigenvalues --   -0.97365  -0.90241  -0.88565  -0.86290  -0.81271
 Alpha  occ. eigenvalues --   -0.78205  -0.77582  -0.76566  -0.76378  -0.75808
 Alpha  occ. eigenvalues --   -0.70210  -0.65220  -0.64689  -0.61190  -0.58867
 Alpha  occ. eigenvalues --   -0.57888  -0.55842  -0.55116  -0.53599  -0.53229
 Alpha  occ. eigenvalues --   -0.51072  -0.49870  -0.49699  -0.49013  -0.48684
 Alpha  occ. eigenvalues --   -0.47935  -0.47199  -0.46736  -0.45865  -0.45517
 Alpha  occ. eigenvalues --   -0.44719  -0.44030  -0.43730  -0.43398  -0.43233
 Alpha  occ. eigenvalues --   -0.42403  -0.42312  -0.41897  -0.41845  -0.41111
 Alpha  occ. eigenvalues --   -0.39842  -0.38588  -0.37809  -0.37353  -0.36241
 Alpha  occ. eigenvalues --   -0.35633  -0.33579  -0.28352
 Alpha virt. eigenvalues --    0.02851   0.05214   0.07456   0.07993   0.08912
 Alpha virt. eigenvalues --    0.09722   0.10231   0.10676   0.11256   0.11745
 Alpha virt. eigenvalues --    0.11837   0.12449   0.12787   0.13112   0.14020
 Alpha virt. eigenvalues --    0.14359   0.14618   0.15234   0.15855   0.16067
 Alpha virt. eigenvalues --    0.16270   0.16624   0.16985   0.17214   0.18371
 Alpha virt. eigenvalues --    0.18610   0.18990   0.19280   0.19499   0.20116
 Alpha virt. eigenvalues --    0.20314   0.20821   0.21082   0.21983   0.22409
 Alpha virt. eigenvalues --    0.22878   0.23335   0.23662   0.23900   0.24588
 Alpha virt. eigenvalues --    0.25475   0.25723   0.26670   0.27125   0.27379
 Alpha virt. eigenvalues --    0.27835   0.28633   0.29989   0.30373   0.30701
 Alpha virt. eigenvalues --    0.31442   0.32133   0.32931   0.33111   0.34401
 Alpha virt. eigenvalues --    0.35239   0.35810   0.36299   0.37032   0.37439
 Alpha virt. eigenvalues --    0.37711   0.38613   0.39519   0.39700   0.40186
 Alpha virt. eigenvalues --    0.40810   0.41290   0.42451   0.42805   0.43165
 Alpha virt. eigenvalues --    0.43653   0.44150   0.44287   0.44343   0.44998
 Alpha virt. eigenvalues --    0.45169   0.46006   0.46257   0.46650   0.46759
 Alpha virt. eigenvalues --    0.47408   0.47762   0.48323   0.48823   0.49031
 Alpha virt. eigenvalues --    0.49553   0.49839   0.50293   0.50422   0.50699
 Alpha virt. eigenvalues --    0.51024   0.51618   0.51756   0.51932   0.52838
 Alpha virt. eigenvalues --    0.53020   0.53330   0.53845   0.53914   0.55202
 Alpha virt. eigenvalues --    0.55753   0.56095   0.56754   0.57241   0.57828
 Alpha virt. eigenvalues --    0.58424   0.59464   0.59945   0.61062   0.61363
 Alpha virt. eigenvalues --    0.62033   0.62338   0.63096   0.64068   0.64313
 Alpha virt. eigenvalues --    0.65274   0.65525   0.66476   0.67522   0.68367
 Alpha virt. eigenvalues --    0.69521   0.69864   0.70612   0.71757   0.72643
 Alpha virt. eigenvalues --    0.74035   0.74586   0.75022   0.76649   0.77396
 Alpha virt. eigenvalues --    0.79156   0.80645   0.80821   0.82622   0.82906
 Alpha virt. eigenvalues --    0.83990   0.85707   0.86681   0.87422   0.88435
 Alpha virt. eigenvalues --    0.89536   0.89927   0.90475   0.91480   0.91806
 Alpha virt. eigenvalues --    0.92742   0.93416   0.93996   0.94510   0.94929
 Alpha virt. eigenvalues --    0.96566   0.97710   0.97845   0.98071   0.98955
 Alpha virt. eigenvalues --    1.00014   1.01471   1.01947   1.03142   1.03645
 Alpha virt. eigenvalues --    1.04629   1.05059   1.06095   1.06820   1.07818
 Alpha virt. eigenvalues --    1.08249   1.09388   1.09700   1.10308   1.12315
 Alpha virt. eigenvalues --    1.12739   1.13461   1.14654   1.15023   1.15433
 Alpha virt. eigenvalues --    1.17017   1.17168   1.17855   1.18716   1.19629
 Alpha virt. eigenvalues --    1.20888   1.21234   1.22462   1.22552   1.23452
 Alpha virt. eigenvalues --    1.24289   1.24582   1.26792   1.26992   1.27781
 Alpha virt. eigenvalues --    1.29397   1.30795   1.31354   1.33212   1.33339
 Alpha virt. eigenvalues --    1.34719   1.37505   1.38992   1.39942   1.41153
 Alpha virt. eigenvalues --    1.42494   1.44201   1.45339   1.47911   1.49773
 Alpha virt. eigenvalues --    1.51180   1.52997   1.53251   1.53862   1.55260
 Alpha virt. eigenvalues --    1.56575   1.56963   1.58266   1.58786   1.59335
 Alpha virt. eigenvalues --    1.59709   1.60171   1.60518   1.61157   1.61918
 Alpha virt. eigenvalues --    1.62066   1.62571   1.63011   1.63933   1.64136
 Alpha virt. eigenvalues --    1.64415   1.64798   1.65241   1.65682   1.66465
 Alpha virt. eigenvalues --    1.66691   1.67054   1.67675   1.68196   1.68692
 Alpha virt. eigenvalues --    1.69145   1.69639   1.70586   1.71019   1.71342
 Alpha virt. eigenvalues --    1.72434   1.73283   1.74025   1.75153   1.75597
 Alpha virt. eigenvalues --    1.75778   1.77082   1.79250   1.79887   1.81615
 Alpha virt. eigenvalues --    1.81797   1.82634   1.83858   1.84044   1.84639
 Alpha virt. eigenvalues --    1.85038   1.86970   1.88600   1.89502   1.90778
 Alpha virt. eigenvalues --    1.91905   1.92658   1.93893   1.94907   1.95957
 Alpha virt. eigenvalues --    1.97800   1.98447   1.99352   1.99884   2.00205
 Alpha virt. eigenvalues --    2.00528   2.02441   2.03443   2.04755   2.05623
 Alpha virt. eigenvalues --    2.06127   2.07372   2.08652   2.09062   2.09997
 Alpha virt. eigenvalues --    2.11075   2.11760   2.13002   2.13814   2.15093
 Alpha virt. eigenvalues --    2.15702   2.16632   2.18060   2.18695   2.19511
 Alpha virt. eigenvalues --    2.19905   2.21205   2.22080   2.23823   2.24623
 Alpha virt. eigenvalues --    2.25880   2.26667   2.27357   2.28905   2.29263
 Alpha virt. eigenvalues --    2.30552   2.31602   2.31960   2.33227   2.33689
 Alpha virt. eigenvalues --    2.34275   2.34559   2.35255   2.35525   2.36553
 Alpha virt. eigenvalues --    2.37279   2.38185   2.38420   2.39442   2.39833
 Alpha virt. eigenvalues --    2.40104   2.40425   2.40929   2.41937   2.42776
 Alpha virt. eigenvalues --    2.43642   2.43935   2.44692   2.45000   2.45173
 Alpha virt. eigenvalues --    2.45809   2.47721   2.48044   2.49250   2.50138
 Alpha virt. eigenvalues --    2.50815   2.51326   2.52839   2.52941   2.54428
 Alpha virt. eigenvalues --    2.55397   2.55874   2.56267   2.56705   2.56804
 Alpha virt. eigenvalues --    2.57409   2.57826   2.58589   2.59092   2.59820
 Alpha virt. eigenvalues --    2.60515   2.60630   2.61248   2.62320   2.62736
 Alpha virt. eigenvalues --    2.63125   2.63777   2.64783   2.65306   2.65726
 Alpha virt. eigenvalues --    2.66418   2.67100   2.68151   2.68689   2.68849
 Alpha virt. eigenvalues --    2.69407   2.70573   2.71656   2.72035   2.73064
 Alpha virt. eigenvalues --    2.73422   2.74469   2.75460   2.76017   2.77257
 Alpha virt. eigenvalues --    2.78180   2.78292   2.79999   2.81202   2.82039
 Alpha virt. eigenvalues --    2.83419   2.84477   2.85889   2.86733   2.88061
 Alpha virt. eigenvalues --    2.88755   2.89294   2.90188   2.90723   2.91949
 Alpha virt. eigenvalues --    2.92432   2.93810   2.95448   2.97063   2.99852
 Alpha virt. eigenvalues --    3.00546   3.02224   3.03397   3.05348   3.05765
 Alpha virt. eigenvalues --    3.06308   3.07340   3.08012   3.09132   3.09917
 Alpha virt. eigenvalues --    3.10626   3.11765   3.12991   3.13461   3.14932
 Alpha virt. eigenvalues --    3.15238   3.15908   3.16619   3.17592   3.18129
 Alpha virt. eigenvalues --    3.19559   3.20755   3.21460   3.22330   3.22793
 Alpha virt. eigenvalues --    3.23607   3.23772   3.24361   3.25568   3.25831
 Alpha virt. eigenvalues --    3.26870   3.27268   3.27978   3.29036   3.30173
 Alpha virt. eigenvalues --    3.30715   3.31138   3.31863   3.33088   3.33666
 Alpha virt. eigenvalues --    3.34639   3.35022   3.35718   3.36584   3.36941
 Alpha virt. eigenvalues --    3.38280   3.38505   3.38681   3.39181   3.39680
 Alpha virt. eigenvalues --    3.40156   3.41088   3.41229   3.41449   3.42347
 Alpha virt. eigenvalues --    3.43395   3.43580   3.44282   3.44874   3.45836
 Alpha virt. eigenvalues --    3.46311   3.47313   3.47673   3.48582   3.49831
 Alpha virt. eigenvalues --    3.50844   3.51886   3.52217   3.52839   3.54150
 Alpha virt. eigenvalues --    3.55082   3.55927   3.56212   3.57266   3.58722
 Alpha virt. eigenvalues --    3.59519   3.60760   3.61044   3.62197   3.64662
 Alpha virt. eigenvalues --    3.65815   3.67542   3.67929   3.68271   3.70261
 Alpha virt. eigenvalues --    3.71020   3.72098   3.72994   3.73520   3.74726
 Alpha virt. eigenvalues --    3.78003   3.78534   3.79643   3.80311   3.84380
 Alpha virt. eigenvalues --    3.86460   3.87913   3.88828   3.89635   3.92162
 Alpha virt. eigenvalues --    3.93514   3.95595   3.97371   3.98782   3.99259
 Alpha virt. eigenvalues --    3.99690   4.02272   4.02733   4.04102   4.05337
 Alpha virt. eigenvalues --    4.06087   4.07243   4.09233   4.10056   4.10903
 Alpha virt. eigenvalues --    4.11717   4.13352   4.13927   4.14508   4.16061
 Alpha virt. eigenvalues --    4.17548   4.19663   4.21136   4.23549   4.25589
 Alpha virt. eigenvalues --    4.27633   4.28452   4.30116   4.30278   4.32430
 Alpha virt. eigenvalues --    4.33500   4.34153   4.36702   4.37321   4.38711
 Alpha virt. eigenvalues --    4.39450   4.40082   4.40710   4.41776   4.43019
[...]
 41,0.00003223,0.00012052,-0.00084119,0.00057339,-0.00018078,0.00019008
 ,-0.00069212,-0.00019989,0.00045212,0.00004115,0.00003464,-0.00004725,
 -0.00020195,-0.00001416,-0.00000926,0.00001826,0.00000298,0.00011162,0
 .00006325,-0.00028380,-0.00024274,-0.00041329,-0.00000372,0.00012077,-
 0.00000524,-0.00000778,-0.00010398,-0.00004999,0.00005236,0.00008223,0
 .00006294,0.00076581,-0.00051538,0.00030345,-0.00003951,0.01160328,-0.
 00033723,-0.00070917,0.00089297,0.00201361,-0.05110940,-0.03138243,-0.
 00321552,0.00108191,0.00076653,-0.00080490,0.00000639,-0.00000044,0.00
 001174,-0.00002339,0.00000048,0.00000911,0.00000055,-0.00000428,-0.000
 01245,0.00002212,-0.00000585,-0.00002244,0.00001421,-0.00011721,0.0000
 7078,0.00003465,0.00000519,0.00005730,-0.00000592,0.00002777,-0.000032
 78,-0.00001415,0.00000560,0.,0.00001473,0.00000953,0.00000549,-0.00003
 343,-0.00000620,-0.00001783,-0.00002984,0.00000935,-0.00000014,0.00001
 025,-0.00001969,0.00001078,-0.00002550,0.00001022,0.00001630,-0.000024
 98,-0.00001950,0.00001453,-0.00000870,0.00000005,-0.00000897,-0.000396
 76,-0.00115037,0.00134422,-0.00036923,0.00064916,-0.00062591,-0.000175
 43,0.00000842,0.00010828,-0.00002027,-0.00030923,0.00029072,0.00065152
 ,0.00068899,0.00027700,0.00017594,0.00033944,0.00014972,0.00164026,0.0
 1654416,0.00287381,-0.00129590,-0.03135603,-0.00329102,0.05049943,-0.0
 0000825,-0.00003813,0.00001932,0.00009685,0.00000234,0.00004153,0.0002
 3441,-0.00053512,0.00022122,-0.00018232,0.00022707,-0.00023481,-0.0002
 1164,0.00034960,0.00006850,0.00004551,-0.00005922,-0.00014009,-0.00000
 792,-0.00000359,0.00001577,-0.00020390,0.00018057,-0.00014151,0.000480
 45,0.00067268,-0.00012084,-0.00008818,-0.00004896,-0.00045404,0.000082
 70,0.00008822,-0.00001812,-0.00003510,0.00000523,-0.00003331,-0.001091
 13,-0.00323400,0.00247674,-0.00150179,-0.00882311,0.00085973,0.0013413
 4,0.00017025,-0.00258590,-0.03065175,-0.31686690,-0.03289682,-0.000261
 95,0.00024329,0.00024708,-0.00001451,0.00001109,-0.00001345,0.00002716
 ,0.00003636,0.00000243,0.00000578,0.00000221,0.00000208,-0.00002881,0.
 00000600,-0.00002397,-0.00004645,-0.00005206,0.00000873,0.00001133,0.0
 0000503,0.00002967,-0.00000193,0.00001338,-0.00001863,-0.00001381,0.00
 000715,0.00000157,0.00000945,0.00000391,0.00000293,-0.00000648,-0.0000
 1164,-0.00000658,-0.00000122,0.00000958,0.00002423,-0.00003066,0.00004
 572,-0.00005429,0.00000004,0.00000418,0.00002184,0.00002263,-0.0000128
 4,0.00000278,0.00002769,0.00002325,-0.00003264,0.00002253,-0.00124438,
 0.00212939,-0.00039802,-0.00048096,0.00078750,0.00006481,-0.00015075,0
 .00088636,-0.00016369,0.00041870,-0.00005518,-0.00019817,-0.00059559,-
 0.00009357,0.00005708,0.00012405,0.00015979,-0.00199468,-0.01295136,-0
 .00162937,-0.00000859,-0.00565554,-0.00018266,0.03409517,0.34782757,0.
 00002175,-0.00002927,0.00002894,-0.00015077,-0.00006954,0.00002236,0.0
 0007661,-0.00033162,0.00014652,-0.00009029,0.00017690,-0.00011801,-0.0
 0003717,0.00017753,-0.00002848,-0.00001656,-0.00000914,0.00000597,-0.0
 0001598,-0.00002123,0.00000415,-0.00022063,0.00058037,0.00044518,0.000
 49777,0.00013119,0.00165920,-0.00005708,-0.00071142,-0.00057357,0.0000
 0286,0.00023081,0.00010646,0.00007460,0.00020704,0.00002388,0.00014192
 ,0.00136497,-0.00166345,-0.00455824,-0.02970678,-0.00183648,0.00237308
 ,-0.00075868,-0.00557550,-0.00309312,-0.02919507,-0.04955805,-0.001659
 47,0.00035929,0.00114342,-0.00000893,0.00003097,-0.00001270,0.00004379
 ,0.00004059,0.00000258,0.00000537,-0.00000642,0.00000318,-0.00002215,0
 .00000142,-0.00001615,-0.00000756,-0.00000629,0.00001910,0.00000755,0.
 00000525,0.00000296,-0.00000696,0.00001874,0.00000246,0.00001091,0.000
 00579,-0.00000397,0.00000321,0.00000312,-0.00000138,-0.00002620,-0.000
 02479,-0.00000487,0.00006060,0.00000085,0.00010153,-0.00001780,0.00003
 809,-0.00004928,-0.00005969,0.00002303,0.00009772,0.00001771,-0.000035
 48,-0.00001685,0.00001659,0.00000394,-0.00002123,0.00097661,0.00135959
 ,-0.00103277,-0.00030888,0.00080727,-0.00047060,0.00003786,-0.00006071
 ,0.00022430,0.00027728,-0.00008581,0.00031157,-0.00001032,-0.00204969,
 0.00007294,0.00008272,0.00020703,-0.00004504,0.00407151,0.02359483,0.0
 0305945,-0.00016792,0.00201896,-0.00088409,0.00134846,0.03103780,0.054
 29582,0.00001709,0.00001094,0.00000417,-0.00015957,-0.00015816,-0.0001
 2159,-0.00008344,-0.00002263,0.00038109,0.00004652,-0.00000759,-0.0002
 7542,0.00010610,-0.00002597,-0.00013773,-0.00001150,0.00002178,0.00014
 407,-0.00000636,-0.00001660,-0.00002994,0.00005424,-0.00017522,-0.0005
 4741,0.00273969,0.00016750,0.00002329,-0.00048440,0.00027578,0.0000074
 1,0.00003630,0.00004432,-0.00006219,-0.00003150,0.00045943,-0.00006650
 ,0.00006619,0.00003154,-0.00001409,-0.01123932,0.00994736,0.03132899,0
 .00111615,0.00182278,0.00044373,-0.00663196,-0.00199126,-0.00110252,-0
 .08072506,0.03043524,0.08416906,0.00001884,0.00000724,0.00000672,-0.00
 001748,-0.00000058,0.00000925,-0.00001241,-0.00001405,-0.00002850,0.00
 005527,-0.00000121,0.00000989,0.00002063,-0.00002106,-0.00002558,-0.00
 000451,-0.00000123,-0.00002102,0.00000106,0.00000387,0.00000977,0.0000
 0869,-0.00000333,-0.00000108,-0.00001055,0.00000935,-0.00000491,0.0000
 3389,-0.00000767,0.00000798,-0.00001853,0.00000326,-0.00002384,-0.0000
 1002,0.00000516,-0.00001513,-0.00008958,0.00004888,-0.00045050,0.00030
 201,-0.00006763,0.00004505,0.00016933,-0.00020744,-0.00010229,-0.00011
 053,0.00000786,-0.00000810,0.00007378,-0.00007036,0.00000195,0.0000051
 3,0.00001613,-0.00004124,-0.00005614,-0.00004945,-0.00010664,0.0001237
 6,-0.00079050,-0.00036656,0.00010266,0.00006217,-0.00040704,0.00024281
 ,-0.00023003,0.00002640,-0.00086794,0.00071047,0.00196773,0.00007934,0
 .00004017,-0.00017655,0.08808698,-0.00000315,0.00001022,-0.00000475,0.
 00004037,0.00003188,0.00003777,-0.00000771,0.00013920,-0.00011496,0.00
 004916,-0.00008464,0.00011399,0.00000021,-0.00007894,0.00003223,0.0000
 0494,0.00000002,-0.00001471,0.00000045,0.00000422,0.00000301,0.0001453
 3,-0.00007709,0.00003303,0.00003154,-0.00002146,-0.00005172,0.00056783
 ,0.00000404,-0.00086227,-0.00020772,0.00003904,0.00025603,0.00051357,-
 0.00018436,0.00048424,-0.00018577,-0.00031000,-0.00029795,-0.00045372,
 -0.00048756,0.00370440,-0.00028072,0.00052819,0.00106985,-0.00068590,0
 .00015198,0.00044287,0.03023528,-0.07514313,-0.07729993,0.00000441,-0.
 00001244,0.00000060,-0.00001352,-0.00001496,0.00000452,-0.00000319,0.0
 0000923,-0.00000575,0.00001772,0.00000298,0.00000727,0.00000190,0.0000
 0105,0.00000319,-0.00000270,-0.00000027,0.00000234,-0.00000108,-0.0000
 0409,-0.00000591,-0.00000272,-0.00000148,0.00000188,0.00000370,0.00000
 102,0.00000042,-0.00010309,0.00003744,-0.00003612,0.00006531,0.0000170
 2,0.00003580,0.00000960,-0.00002837,-0.00000655,0.00020956,0.00010042,
 0.00039262,-0.00008714,-0.00190341,0.00012278,-0.00034244,0.00022005,-
 0.00016007,0.00017763,0.00023138,0.00018584,0.00008296,-0.00001199,0.0
 0018405,0.00013208,-0.00008863,0.00007560,-0.00004818,-0.00002269,0.00
 012670,-0.00052366,-0.00008128,-0.00011498,0.00013423,-0.00003929,-0.0
 0003416,-0.00009862,-0.00002496,-0.00023903,-0.00017572,0.00050259,0.0
 0002160,-0.00022171,0.00019308,0.00019066,-0.03265228,0.07929235,0.000
 01960,-0.00000991,0.00001335,-0.00012111,-0.00008247,0.00004660,-0.000
 03731,-0.00002481,-0.00004308,0.00001023,0.00004906,0.00004569,0.00002
 236,0.00000130,0.00001464,-0.00003125,0.00000049,-0.00002774,0.0000026
 6,0.00000248,0.00000731,0.00049682,0.00018372,0.00037329,0.00042383,-0
 .00010971,0.00049708,0.00015670,-0.00010887,-0.00001360,-0.00002195,-0
 .00001101,0.00002457,0.00025145,0.00248073,-0.00104414,-0.00008092,0.0
 0002721,-0.00004918,-0.00092079,-0.00019579,-0.00117935,-0.00044528,-0
 .00009333,-0.00000058,0.00060816,0.00044318,0.00097833,0.08625676,-0.0
 7915449,-0.25632414,-0.00000228,0.00001599,-0.00000144,0.00001109,0.00
 000533,-0.00000958,-0.00000068,-0.00000237,0.00000969,0.00003762,0.000
 01221,0.00000941,-0.00000734,0.00000305,0.00000990,0.00000608,0.000001
 92,0.00000466,-0.00000225,0.00000256,-0.00000298,-0.00000066,-0.000000
 62,-0.00000203,0.00000413,-0.00000248,0.00000450,-0.00001756,-0.000009
 46,0.00000457,0.00001707,0.00000961,0.00001172,0.00001946,-0.00002277,
 0.00001158,0.00000894,0.00028815,-0.00025570,-0.00074096,0.00090394,-0
 .00085256,-0.00050252,0.00022510,-0.00019869,0.00003236,0.00004820,0.0
 0000346,-0.00001360,0.00001737,-0.00000514,0.00000488,-0.00002852,0.00
 003061,0.00012671,-0.00009459,-0.00000538,0.00012211,0.00044209,0.0003
 8520,-0.00004730,0.00018620,0.00030311,-0.00012383,-0.00011215,0.00045
 921,0.00013881,-0.00024872,0.00006592,-0.00009357,-0.00002436,-0.00005
 228,-0.09414474,0.08260350,0.27861350,-0.00013963,0.00003890,-0.000065
 08,0.00037419,-0.00001352,-0.00024762,0.00036570,0.00048384,-0.0004096
 8,0.00006571,-0.00025030,0.00037251,-0.00017996,-0.00012525,0.00009908
 ,0.00006165,-0.00003145,-0.00011847,0.00000030,0.00000783,0.00001994,-
 0.00063676,-0.00028342,0.00001838,-0.00722189,0.00039357,0.00011487,-0
 .00053798,-0.00158595,0.00077338,0.00016544,0.00017323,-0.00006408,-0.
 00006647,-0.00059175,0.00050001,0.00005496,-0.00002490,-0.00020870,-0.
 01388971,0.01716528,-0.02452793,0.00065909,0.00120420,-0.00099688,0.00
 094270,0.00029665,-0.00067513,-0.09079137,0.06057161,-0.08049165,-0.00
 000061,-0.00007114,-0.00000946,-0.00001008,-0.00003480,-0.00000714,0.0
 0000491,0.00000015,0.00000773,-0.00009039,-0.00000494,-0.00002313,0.00
 000499,0.00001737,0.00001197,-0.00001101,0.00000250,0.00001584,0.00000
 304,-0.00000784,-0.00000697,-0.00000926,0.00000490,0.00000309,0.000005
 42,-0.00000371,-0.00000013,0.00007848,-0.00003336,0.00001630,-0.000008
 75,-0.00002566,-0.00000289,-0.00001461,0.00009516,-0.00009267,-0.00009
 925,-0.00002794,-0.00007162,0.00051323,0.00007753,0.00020071,0.0003023
 4,-0.00007542,0.00017885,0.00003611,0.00000180,0.00008023,-0.00001451,
 -0.00003770,-0.00001304,0.00002166,0.00007998,0.00006695,-0.00039678,-
 0.00102064,0.00043305,-0.00001245,-0.00015718,0.00004879,0.00024334,0.
 00013025,0.00034927,-0.00038564,-0.00001263,0.00095730,0.00039768,-0.0
 0030286,0.00003146,-0.00002898,-0.00003695,0.00004941,0.00481596,-0.00
 750658,0.00807600,0.10228040,0.00001997,0.00000526,-0.00001290,-0.0000
 5724,-0.00001238,0.00004096,-0.00000419,-0.00001625,0.00008126,0.00001
 930,0.00001410,-0.00005562,0.00001955,0.00002485,-0.00004247,-0.000019
 73,0.00000668,0.00004019,-0.00000590,-0.00001233,-0.00000397,0.0003583
 7,0.00012119,-0.00010217,-0.00176121,0.00066453,-0.00054200,-0.0004376
 5,-0.00024448,-0.00018284,0.00002829,0.00007051,-0.00001273,-0.0006253
 0,-0.00027649,0.00005207,-0.00014275,-0.00026591,-0.00039288,-0.001679
 92,0.00064700,-0.00251737,-0.00178851,-0.00034569,-0.00009989,0.000014
 69,-0.00025655,0.00027370,0.06235327,-0.12655312,0.10670698,0.00000350
 ,0.00000479,0.00000315,-0.00000812,0.00000442,-0.00000227,-0.00000245,
 -0.00000537,-0.00000283,0.00000179,-0.00000369,0.00000120,-0.00000068,
 -0.00000604,-0.00000254,0.00000219,0.00000292,-0.00000318,-0.00000249,
 0.00000787,0.00000405,0.00000575,0.00000097,-0.00000355,-0.00000153,0.
 00000242,0.00000041,0.00002975,-0.00002123,0.00000759,0.00000767,0.000
 00075,0.00003573,-0.00000839,0.00001092,-0.00002598,0.00009005,0.00006
 360,0.00017418,0.00057014,0.00002449,0.00022934,0.00018733,0.00010070,
 0.00019787,0.00025832,0.00006424,0.00043543,0.00018332,-0.00007670,0.0
 0008162,0.00014981,-0.00006654,0.00009357,-0.00134126,-0.00009737,-0.0
 0016024,0.00023484,-0.00000030,-0.00021532,0.00007875,0.00005673,-0.00
 035749,0.00014872,0.00028215,-0.00033120,-0.00009422,0.00004298,-0.000
 25124,0.00008881,-0.00006381,0.00011591,-0.00551061,0.00582943,-0.0079
 5788,-0.06452823,0.13587602,-0.00002300,0.00001882,-0.00002136,0.00015
 563,0.00007708,0.00006570,0.00006164,0.00018677,-0.00018818,0.00003549
 ,-0.00013590,0.00014424,-0.00005215,-0.00008373,0.00005354,0.00004175,
 -0.00000843,-0.00003274,0.00000103,0.00000709,0.00000386,0.00020377,-0
 .00007527,0.00020147,-0.00015250,-0.00009992,0.00138752,0.00032780,-0.
 00028915,-0.00018208,-0.00003342,0.00002855,0.00007954,0.00044286,0.00
 072336,-0.00023958,-0.00000466,-0.00012019,-0.00005807,0.00075255,-0.0
 0067413,-0.00097885,0.00071791,0.00053695,-0.00015168,0.00056217,-0.00
 010334,-0.00008179,-0.08260094,0.10580948,-0.18957543,-0.00000568,-0.0
 0002041,0.00000335,-0.00000809,-0.00001843,0.00000156,0.00000615,0.000
 00948,0.00000785,-0.00001223,0.00000043,-0.00000415,0.00000636,0.00000
 535,0.00000047,-0.00000802,-0.00000147,0.00000308,0.00000203,-0.000008
 10,-0.00000404,-0.00000487,0.00000059,0.00000418,0.00000151,0.,-0.0000
 0280,-0.00003716,0.00000366,0.00000738,0.00002696,-0.00000176,0.000003
 72,0.00001234,-0.00000059,-0.00001495,0.00017786,0.00003797,0.00027301
 ,-0.00044077,-0.00010510,-0.00048121,-0.00033809,0.00016161,-0.0000674
 5,0.00005999,0.00001862,0.00005987,0.00000248,0.00000156,0.00006397,0.
 00004570,-0.00002489,0.00000631,0.00023318,-0.00021543,0.00067400,-0.0
 0018242,0.00005917,-0.00020940,0.00016925,-0.00028148,0.00027207,0.000
 65344,-0.00006398,0.00016393,-0.00007415,-0.00013531,0.00020312,0.0000
 1462,-0.00010333,-0.00005037,-0.01228791,0.01570493,-0.01891152,0.0886
 9246,-0.11798443,0.20377750,0.00001590,-0.00004204,0.00002933,0.000013
 88,-0.00002175,0.00009008,0.00011281,-0.00053518,0.00028748,-0.0001950
 9,0.00031333,-0.00024477,-0.00011053,0.00031712,-0.00001065,0.00002905
 ,-0.00003690,-0.00005492,-0.00001070,-0.00001577,0.00000825,0.00014614
 ,0.00039040,-0.00017021,0.00127372,0.00020355,0.00053120,-0.00039165,-
 0.00045975,-0.00087842,0.00004177,0.00030557,0.00009195,-0.00011911,0.
 00045479,-0.00015318,-0.00070938,0.00033706,-0.00059154,-0.00476074,-0
 .03194902,-0.00336812,-0.00714008,-0.00006952,0.00036304,0.00179221,-0
 .00034767,-0.00120521,-0.06644612,-0.06866925,-0.00934940,-0.00001034,
 0.00002549,-0.00001462,0.00002917,0.00005665,0.00003505,-0.00000200,0.
 00000487,-0.00001614,-0.00002539,0.00000594,-0.00002617,-0.00001060,-0
 .00001165,0.00001245,0.00000749,0.00000467,0.00001000,-0.00000309,0.00
 001529,-0.00000390,-0.00000119,0.00000728,-0.00000188,0.00000283,0.000
 00416,-0.00000006,0.00001082,-0.00003814,0.00000484,0.00006155,-0.0000
 0414,0.00010103,-0.00002075,0.00004337,-0.00006076,0.00003864,-0.00003
 127,0.00015596,0.00062699,-0.00006194,0.00014600,0.00005819,0.00001977
 ,-0.00003413,-0.00071928,0.00239992,0.00041004,0.00025957,-0.00011871,
 0.00016785,0.00019780,-0.00008565,0.00017609,0.00013329,0.00007684,0.0
 0029662,0.00003350,0.00015952,-0.00014256,0.00006591,-0.00228041,0.000
 05986,-0.00006223,0.00005930,0.00007953,0.00014980,0.00021690,-0.00019
 002,-0.00015622,0.00052278,0.00051410,0.00224835,0.01117957,0.00050205
 ,0.00314881,0.01316625,0.00285912,0.07039630,-0.00000943,-0.00003468,0
 .00001203,0.00009730,-0.00002100,0.00006815,0.00014427,-0.00037224,0.0
 0017411,-0.00020125,0.00019764,-0.00017113,-0.00014228,0.00025341,0.00
 001828,0.00005897,-0.00003994,-0.00005726,-0.00000854,-0.00000896,0.00
 000568,-0.00006796,0.00021784,-0.00008434,-0.00041129,0.00045305,-0.00
 016139,-0.00088282,-0.00020324,-0.00027566,0.00006030,0.00002573,-0.00
 012040,-0.00083082,-0.00069482,0.00099980,0.00070905,-0.00152156,-0.00
 038581,0.00077632,-0.00272473,0.00007397,-0.00223928,0.00066910,0.0000
 2750,0.00007902,0.00040780,-0.00000969,-0.07049892,-0.29823237,-0.0381
 4475,-0.00001593,0.00000997,-0.00001304,0.00002615,0.00004038,0.000006
 34,0.00000626,-0.00000024,0.00000090,-0.00003571,0.00000603,-0.0000251
 8,-0.00000312,-0.00000763,0.00000640,-0.00000039,0.00000216,0.00000789
 ,0.00000120,0.00000686,-0.00000315,-0.00000444,0.00000644,0.00000153,0
 .00000046,0.00000348,-0.00000324,0.00003551,-0.00003429,-0.00001163,-0
 .00005242,0.00000984,0.00002926,-0.00002210,0.00007337,-0.00005248,0.0
 0005994,0.00000514,0.00016583,0.00093018,0.00009776,0.00178853,0.00042
 667,0.00008623,0.00034164,0.00322977,-0.00242256,0.00062448,0.00012728
 ,-0.00013252,0.00004971,0.00031321,-0.00011290,0.00023347,0.00015032,0
 .00033887,-0.00023394,0.00022572,0.00023899,0.00017708,0.00009444,-0.0
 0028147,-0.00004979,-0.00013610,-0.00012959,0.00003379,-0.00004567,0.0
 0013782,0.00008004,-0.00037525,0.00015748,0.00037004,-0.00210637,-0.00
 872578,0.00034091,-0.00395064,-0.01560524,-0.00283670,0.07448838,0.327
 86036,0.00001374,0.00000408,-0.00000379,-0.00001063,0.00003165,0.00003
 911,-0.00001674,-0.00011355,0.00007286,0.00000342,0.00004726,-0.000092
 43,0.00001137,0.00006234,-0.00003260,-0.00000875,0.00000329,0.00004045
 ,-0.00000688,-0.00001267,-0.00000520,0.00003040,0.00014684,-0.00004057
 ,0.00002418,-0.00034114,-0.00013396,-0.00055188,-0.00011287,0.00013878
 ,0.00017857,0.00005189,-0.00016738,-0.00054519,-0.00020268,-0.00105184
 ,0.00008919,0.00009937,-0.00016591,0.00002233,0.00125401,-0.00180338,0
 .00058194,0.00040377,0.00000783,-0.00015943,0.00073557,0.00034814,-0.0
 0900377,-0.03567128,-0.05132171,-0.00000314,0.00000814,0.00000466,0.00
 000695,0.00000462,-0.00000864,0.00000650,-0.00000602,0.00001210,-0.000
 02659,-0.00000913,-0.00001445,0.00000092,-0.00000620,-0.00000328,0.000
 00156,0.00000297,-0.00000475,-0.00000098,0.00000813,0.00000585,0.00000
 525,0.00000239,-0.00000285,-0.00000319,0.00000231,-0.00000103,0.000077
 81,-0.00004512,0.00004086,-0.00001664,-0.00000272,0.00002499,-0.000012
 16,0.00002045,-0.00000839,0.00007460,0.00004849,0.00013736,0.00008702,
 0.00075443,-0.00259711,0.00021716,-0.00005354,0.00015223,0.00024360,-0
 .00020076,0.00099766,0.00017373,-0.00009020,0.00004774,-0.00001870,0.0
 0001028,-0.00002370,0.00017906,-0.00040928,0.00034467,-0.00008238,0.00
 040271,0.00024854,0.00007695,0.00013585,0.00077946,-0.00010010,0.00018
 798,-0.00006863,-0.00014366,-0.00006534,-0.00007255,0.00012266,-0.0001
 8356,0.00023545,-0.00801752,-0.02659285,-0.00294879,0.00691468,0.02268
 781,0.00379437,0.00958477,0.03700224,0.05309984\\-0.00000011,0.0000004
 9,0.00000062,0.00000572,-0.00000665,-0.00000366,-0.00000624,0.00000878
 ,0.00000119,0.00000386,-0.00000939,0.00000331,0.00000831,0.00000613,-0
 .00000325,-0.00000198,-0.00000612,-0.00000384,-0.00000044,-0.00000188,
 -0.00000052,0.00000509,0.00000478,0.00000393,-0.00001581,-0.00000643,-
 0.00000792,0.00000759,0.00000079,-0.00001225,0.00000654,-0.00000339,0.
 00000014,-0.00000168,-0.00000215,0.00001055,-0.00000090,0.00000186,-0.
 00000299,0.00000870,-0.00000363,0.00001064,0.00000406,0.00000493,-0.00
 000228,-0.00000410,-0.00000180,-0.00000215,-0.00000755,0.00000421,0.00
 000281,0.00000007,-0.00000268,0.00000007,-0.00000026,-0.00000308,0.000
 00199,0.00000179,0.00000135,0.00000095,-0.00000119,-0.00000028,-0.0000
 0352,0.00000011,0.00000101,0.00000140,0.00000008,-0.00000064,-0.000000
 11,-0.00000048,0.00000056,-0.00000226,-0.00000082,0.00000007,-0.000001
 64,-0.00000216,-0.00000068,-0.00000252,-0.00000379,-0.00000067,0.00000
 156,-0.00000155,-0.00000093,0.00000019,-0.00000212,0.00000068,-0.00000
 116,0.00000101,-0.00000173,0.00000049,-0.00000116,-0.00000032,-0.00000
 198,-0.00000277,0.00000510,-0.00000041,0.00000324,-0.00000394,0.000005
 40,-0.00000106,0.00000221,0.00000032,-0.00000110,0.00000132,0.00000068
 ,0.00000058,0.00000089,0.00000217,-0.00000001,0.00000068,0.00000053,-0
 .00000264,0.00000127,0.00000069,-0.00000003,0.00000165,0.00000394,0.00
 000108,-0.00000054,0.00000023,0.00000291,0.00000371,-0.00000066,0.0000
 0047,0.00000019,-0.00000339,-0.00000028,0.00000051,0.00000283,-0.00000
 101,0.00000375,-0.00000014\\\@
 The archive entry for this job was punched.


 READER, WHETHER YOU BE DILETTANTE OR PROFESSOR ... SHOW YOURSELF TO BE
 MORE HUMAN THAN CRITICAL, AND THEN YOUR PLEASURE WILL INCREASE.
                                           -- DOMENICO SCARLATTI (1738)
 Job cpu time:       1 days 17 hours 34 minutes 32.0 seconds.
 Elapsed time:       0 days  2 hours  4 minutes 44.8 seconds.
 File lengths (MBytes):  RWF=   1661 Int=      0 D2E=      0 Chk=     40 Scr=      1
 Normal termination of Gaussian 16 at Tue Jan  7 23:59:12 2025.
