 Entering Gaussian System, Link 0=g16
 Input=gjfs/data_set_12-nBA_dormant-26.gjf
 Output=gjfs/data_set_12-nBA_dormant-26.log
 Initial command:
 /usr/local/intel/g16/l1.exe "/scr/Gau-4148268.inp" -scrdir="/scr/"
 Entering Link 1 = /usr/local/intel/g16/l1.exe PID=   4148270.
  
 Copyright (c) 1988-2019, Gaussian, Inc.  All Rights Reserved.
  
 This is part of the Gaussian(R) 16 program.  It is based on
 the Gaussian(R) 09 system (copyright 2009, Gaussian, Inc.),
 the Gaussian(R) 03 system (copyright 2003, Gaussian, Inc.),
 the Gaussian(R) 98 system (copyright 1998, Gaussian, Inc.),
 the Gaussian(R) 94 system (copyright 1995, Gaussian, Inc.),
 the Gaussian 92(TM) system (copyright 1992, Gaussian, Inc.),
 the Gaussian 90(TM) system (copyright 1990, Gaussian, Inc.),
 the Gaussian 88(TM) system (copyright 1988, Gaussian, Inc.),
 the Gaussian 86(TM) system (copyright 1986, Carnegie Mellon
 University), and the Gaussian 82(TM) system (copyright 1983,
 Carnegie Mellon University). Gaussian is a federally registered
 trademark of Gaussian, Inc.
  
 This software contains proprietary and confidential information,
 including trade secrets, belonging to Gaussian, Inc.
  
 This software is provided under written license and may be
 used, copied, transmitted, or stored only in accord with that
 written license.
  
 The following legend is applicable only to US Government
 contracts under FAR:
  
                    RESTRICTED RIGHTS LEGEND
  
 Use, reproduction and disclosure by the US Government is
 subject to restrictions as set forth in subparagraphs (a)
 and (c) of the Commercial Computer Software - Restricted
 Rights clause in FAR 52.227-19.
  
 Gaussian, Inc.
 340 Quinnipiac St., Bldg. 40, Wallingford CT 06492
  
  
 ---------------------------------------------------------------
 Warning -- This program may not be used in any manner that
 competes with the business of Gaussian, Inc. or will provide
 assistance to any competitor of Gaussian, Inc.  The licensee
 of this program is prohibited from giving any competitor of
 Gaussian, Inc. access to this program.  By using this program,
 the user acknowledges that Gaussian, Inc. is engaged in the
 business of creating and licensing software in the field of
 computational chemistry and represents and warrants to the
 licensee that it is not a competitor of Gaussian, Inc. and that
 it will not use this program in any manner prohibited above.
 ---------------------------------------------------------------
  

 Cite this work as:
 Gaussian 16, Revision C.01,
 M. J. Frisch, G. W. Trucks, H. B. Schlegel, G. E. Scuseria, 
 M. A. Robb, J. R. Cheeseman, G. Scalmani, V. Barone, 
 G. A. Petersson, H. Nakatsuji, X. Li, M. Caricato, A. V. Marenich, 
 J. Bloino, B. G. Janesko, R. Gomperts, B. Mennucci, H. P. Hratchian, 
 J. V. Ortiz, A. F. Izmaylov, J. L. Sonnenberg, D. Williams-Young, 
 F. Ding, F. Lipparini, F. Egidi, J. Goings, B. Peng, A. Petrone, 
 T. Henderson, D. Ranasinghe, V. G. Zakrzewski, J. Gao, N. Rega, 
 G. Zheng, W. Liang, M. Hada, M. Ehara, K. Toyota, R. Fukuda, 
 J. Hasegawa, M. Ishida, T. Nakajima, Y. Honda, O. Kitao, H. Nakai, 
 T. Vreven, K. Throssell, J. A. Montgomery, Jr., J. E. Peralta, 
 F. Ogliaro, M. J. Bearpark, J. J. Heyd, E. N. Brothers, K. N. Kudin, 
 V. N. Staroverov, T. A. Keith, R. Kobayashi, J. Normand, 
 K. Raghavachari, A. P. Rendell, J. C. Burant, S. S. Iyengar, 
 J. Tomasi, M. Cossi, J. M. Millam, M. Klene, C. Adamo, R. Cammi, 
 J. W. Ochterski, R. L. Martin, K. Morokuma, O. Farkas, 
 J. B. Foresman, and D. J. Fox, Gaussian, Inc., Wallingford CT, 2019.
 
 ******************************************
 Gaussian 16:  ES64L-G16RevC.01  3-Jul-2019
                 7-Jan-2025 
 ******************************************
 %nprocshared=20
 Will use up to   20 processors via shared memory.
 %mem=30GB
 %chk=outputs/data_set_12-nBA_dormant-26.chk
 ----------------------------------
 #p M062X/DEF2TZVP opt freq pop=NBO
 ----------------------------------
 1/18=20,19=15,26=3,38=1/1,3;
 2/9=110,12=2,17=6,18=5,40=1/2;
 3/5=44,7=101,11=2,25=1,30=1,71=1,74=-55/1,2,3;
 4//1;
 5/5=2,38=5/2;
 6/7=2,8=2,9=2,10=2,28=1,40=1/1,7;
 7//1,2,3,16;
 1/18=20,19=15,26=3/3(2);
 2/9=110/2;
 99//99;
 2/9=110/2;
 3/5=44,7=101,11=2,25=1,30=1,71=1,74=-55/1,2,3;
 4/5=5,16=3,69=1/1;
 5/5=2,38=5/2;
 7//1,2,3,16;
 1/18=20,19=15,26=3/3(-5);
 2/9=110/2;
 6/7=2,8=2,9=2,10=2,19=2,28=1,40=1/1,7;
 99/9=1/99;
 Leave Link    1 at Tue Jan  7 18:14:37 2025, MaxMem=  4026531840 cpu:               1.0 elap:               0.1
 (Enter /usr/local/intel/g16/l101.exe)
 --------------------------
 data_set_12-nBA_dormant-26
 --------------------------
 Symbolic Z-matrix:
 Charge =  0 Multiplicity = 1
 C                     1.1631    3.02213  -0.7626 
 C                     0.0803    2.22357  -0.05301 
 C                    -1.31795   2.81979  -0.23041 
 O                    -1.62264   3.73573  -1.00027 
 O                    -2.21689   2.16213   0.55446 
 C                    -3.65519   2.39096   0.3395 
 C                    -4.38291   1.26743   1.06284 
 O                    -0.05196   0.88797  -0.64156 
 N                     0.58051  -0.14162   0.13117 
 C                    -0.34242  -1.02322   0.90826 
 C                     0.63412  -2.20044   1.17176 
 C                     1.3673   -2.36093  -0.16911 
 C                     1.62494  -0.89744  -0.63309 
 C                     3.02813  -0.43879  -0.18351 
 C                     3.20777   0.42281   0.91054 
 C                     4.49198   0.80186   1.33039 
 C                     5.6257    0.31952   0.66288 
 C                     5.46032  -0.55193  -0.4254 
 C                     4.17606  -0.92641  -0.8404 
 C                     1.4693   -0.75466  -2.15959 
 H                     1.24231   4.02921  -0.34111 
 H                     0.92775   3.11527  -1.82567 
 H                     2.12298   2.51072  -0.64745 
 H                     0.28782   2.10902   1.01427 
 H                    -3.847     2.38183  -0.7376 
 H                    -3.9092    3.38047   0.73146 
 H                    -4.08023   0.29629   0.66011 
 H                    -5.46414   1.38114   0.9319 
 H                    -4.15822   1.28635   2.13321 
 H                     0.11304  -3.10916   1.47801 
 H                     1.33771  -1.91907   1.96331 
 H                     0.7149   -2.86536  -0.89097 
 H                     2.29524  -2.92983  -0.08195 
 H                     2.32783   0.78696   1.4275 
 H                     4.60427   1.47108   2.17781 
 H                     6.61983   0.61202   0.98476 
 H                     6.32925  -0.93894  -0.94825 
 H                     4.07579  -1.6093   -1.67883 
 H                     0.4609   -1.04229  -2.46727 
 H                     2.17632  -1.41482  -2.67127 
 H                     1.65359   0.2726   -2.48204 
 C                    -0.74424  -0.30022   2.21008 
 C                    -1.6138   -1.52233   0.18811 
 C                    -2.42901  -2.45605   0.86272 
 C                    -3.60846  -2.94639   0.28997 
 C                    -4.00579  -2.5113   -0.98392 
 C                    -3.2064   -1.58433  -1.66519 
 C                    -2.02603  -1.09173  -1.08618 
 H                    -1.27574  -0.97668   2.88742 
 H                    -1.39868   0.54628   1.98552 
 H                     0.15642   0.06002   2.71902 
 H                    -2.14416  -2.80893   1.85017 
 H                    -4.21361  -3.66467   0.83395 
 H                    -4.91877  -2.88793  -1.4334 
 H                    -3.50111  -1.23387  -2.64951 
 H                    -1.4476   -0.34498  -1.61017 
 
 ITRead=  0  0  0  0  0  0  0  0  0  0  0  0  0  0  0  0  0  0  0  0
 ITRead=  0  0  0  0  0  0  0  0  0  0  0  0  0  0  0  0  0  0  0  0
 ITRead=  0  0  0  0  0  0  0  0  0  0  0  0  0  0  0  0
 MicOpt= -1 -1 -1 -1 -1 -1 -1 -1 -1 -1 -1 -1 -1 -1 -1 -1 -1 -1 -1 -1
 MicOpt= -1 -1 -1 -1 -1 -1 -1 -1 -1 -1 -1 -1 -1 -1 -1 -1 -1 -1 -1 -1
 MicOpt= -1 -1 -1 -1 -1 -1 -1 -1 -1 -1 -1 -1 -1 -1 -1 -1
 NAtoms=     56 NQM=       56 NQMF=       0 NMMI=      0 NMMIF=      0
                NMic=       0 NMicF=      0.
                    Isotopes and Nuclear Properties:
 (Nuclear quadrupole moments (NQMom) in fm**2, nuclear magnetic moments (NMagM)
  in nuclear magnetons)

  Atom         1           2           3           4           5           6           7           8           9          10
 IAtWgt=          12          12          12          16          16          12          12          16          14          12
 AtmWgt=  12.0000000  12.0000000  12.0000000  15.9949146  15.9949146  12.0000000  12.0000000  15.9949146  14.0030740  12.0000000
 NucSpn=           0           0           0           0           0           0           0           0           2           0
 AtZEff=  -0.0000000  -0.0000000  -0.0000000  -0.0000000  -0.0000000  -0.0000000  -0.0000000  -0.0000000  -0.0000000  -0.0000000
 NQMom=    0.0000000   0.0000000   0.0000000   0.0000000   0.0000000   0.0000000   0.0000000   0.0000000   2.0440000   0.0000000
 NMagM=    0.0000000   0.0000000   0.0000000   0.0000000   0.0000000   0.0000000   0.0000000   0.0000000   0.4037610   0.0000000
 AtZNuc=   6.0000000   6.0000000   6.0000000   8.0000000   8.0000000   6.0000000   6.0000000   8.0000000   7.0000000   6.0000000

  Atom        11          12          13          14          15          16          17          18          19          20
 IAtWgt=          12          12          12          12          12          12          12          12          12          12
 AtmWgt=  12.0000000  12.0000000  12.0000000  12.0000000  12.0000000  12.0000000  12.0000000  12.0000000  12.0000000  12.0000000
 NucSpn=           0           0           0           0           0           0           0           0           0           0
 AtZEff=  -0.0000000  -0.0000000  -0.0000000  -0.0000000  -0.0000000  -0.0000000  -0.0000000  -0.0000000  -0.0000000  -0.0000000
 NQMom=    0.0000000   0.0000000   0.0000000   0.0000000   0.0000000   0.0000000   0.0000000   0.0000000   0.0000000   0.0000000
 NMagM=    0.0000000   0.0000000   0.0000000   0.0000000   0.0000000   0.0000000   0.0000000   0.0000000   0.0000000   0.0000000
 AtZNuc=   6.0000000   6.0000000   6.0000000   6.0000000   6.0000000   6.0000000   6.0000000   6.0000000   6.0000000   6.0000000

  Atom        21          22          23          24          25          26          27          28          29          30
 IAtWgt=           1           1           1           1           1           1           1           1           1           1
 AtmWgt=   1.0078250   1.0078250   1.0078250   1.0078250   1.0078250   1.0078250   1.0078250   1.0078250   1.0078250   1.0078250
 NucSpn=           1           1           1           1           1           1           1           1           1           1
 AtZEff=  -0.0000000  -0.0000000  -0.0000000  -0.0000000  -0.0000000  -0.0000000  -0.0000000  -0.0000000  -0.0000000  -0.0000000
 NQMom=    0.0000000   0.0000000   0.0000000   0.0000000   0.0000000   0.0000000   0.0000000   0.0000000   0.0000000   0.0000000
 NMagM=    2.7928460   2.7928460   2.7928460   2.7928460   2.7928460   2.7928460   2.7928460   2.7928460   2.7928460   2.7928460
 AtZNuc=   1.0000000   1.0000000   1.0000000   1.0000000   1.0000000   1.0000000   1.0000000   1.0000000   1.0000000   1.0000000

  Atom        31          32          33          34          35          36          37          38          39          40
 IAtWgt=           1           1           1           1           1           1           1           1           1           1
 AtmWgt=   1.0078250   1.0078250   1.0078250   1.0078250   1.0078250   1.0078250   1.0078250   1.0078250   1.0078250   1.0078250
 NucSpn=           1           1           1           1           1           1           1           1           1           1
 AtZEff=  -0.0000000  -0.0000000  -0.0000000  -0.0000000  -0.0000000  -0.0000000  -0.0000000  -0.0000000  -0.0000000  -0.0000000
 NQMom=    0.0000000   0.0000000   0.0000000   0.0000000   0.0000000   0.0000000   0.0000000   0.0000000   0.0000000   0.0000000
 NMagM=    2.7928460   2.7928460   2.7928460   2.7928460   2.7928460   2.7928460   2.7928460   2.7928460   2.7928460   2.7928460
 AtZNuc=   1.0000000   1.0000000   1.0000000   1.0000000   1.0000000   1.0000000   1.0000000   1.0000000   1.0000000   1.0000000

  Atom        41          42          43          44          45          46          47          48          49          50
 IAtWgt=           1          12          12          12          12          12          12          12           1           1
 AtmWgt=   1.0078250  12.0000000  12.0000000  12.0000000  12.0000000  12.0000000  12.0000000  12.0000000   1.0078250   1.0078250
 NucSpn=           1           0           0           0           0           0           0           0           1           1
 AtZEff=  -0.0000000  -0.0000000  -0.0000000  -0.0000000  -0.0000000  -0.0000000  -0.0000000  -0.0000000  -0.0000000  -0.0000000
 NQMom=    0.0000000   0.0000000   0.0000000   0.0000000   0.0000000   0.0000000   0.0000000   0.0000000   0.0000000   0.0000000
 NMagM=    2.7928460   0.0000000   0.0000000   0.0000000   0.0000000   0.0000000   0.0000000   0.0000000   2.7928460   2.7928460
 AtZNuc=   1.0000000   6.0000000   6.0000000   6.0000000   6.0000000   6.0000000   6.0000000   6.0000000   1.0000000   1.0000000

  Atom        51          52          53          54          55          56
 IAtWgt=           1           1           1           1           1           1
 AtmWgt=   1.0078250   1.0078250   1.0078250   1.0078250   1.0078250   1.0078250
 NucSpn=           1           1           1           1           1           1
 AtZEff=  -0.0000000  -0.0000000  -0.0000000  -0.0000000  -0.0000000  -0.0000000
 NQMom=    0.0000000   0.0000000   0.0000000   0.0000000   0.0000000   0.0000000
 NMagM=    2.7928460   2.7928460   2.7928460   2.7928460   2.7928460   2.7928460
 AtZNuc=   1.0000000   1.0000000   1.0000000   1.0000000   1.0000000   1.0000000
 Leave Link  101 at Tue Jan  7 18:14:38 2025, MaxMem=  4026531840 cpu:              24.0 elap:               1.2
 (Enter /usr/local/intel/g16/l103.exe)

 GradGradGradGradGradGradGradGradGradGradGradGradGradGradGradGradGradGrad
 Berny optimization.
 Initialization pass.
                           ----------------------------
                           !    Initial Parameters    !
                           ! (Angstroms and Degrees)  !
 --------------------------                            --------------------------
 ! Name  Definition              Value          Derivative Info.                !
 --------------------------------------------------------------------------------
 ! R1    R(1,2)                  1.5211         estimate D2E/DX2                !
 ! R2    R(1,21)                 1.0946         estimate D2E/DX2                !
 ! R3    R(1,22)                 1.0928         estimate D2E/DX2                !
 ! R4    R(1,23)                 1.0937         estimate D2E/DX2                !
 ! R5    R(2,3)                  1.5304         estimate D2E/DX2                !
 ! R6    R(2,8)                  1.4655         estimate D2E/DX2                !
 ! R7    R(2,24)                 1.0933         estimate D2E/DX2                !
 ! R8    R(3,4)                  1.2347         estimate D2E/DX2                !
 ! R9    R(3,5)                  1.3626         estimate D2E/DX2                !
 ! R10   R(5,6)                  1.4722         estimate D2E/DX2                !
 ! R11   R(6,7)                  1.5215         estimate D2E/DX2                !
 ! R12   R(6,25)                 1.0941         estimate D2E/DX2                !
 ! R13   R(6,26)                 1.0942         estimate D2E/DX2                !
 ! R14   R(7,27)                 1.094          estimate D2E/DX2                !
 ! R15   R(7,28)                 1.0951         estimate D2E/DX2                !
 ! R16   R(7,29)                 1.0939         estimate D2E/DX2                !
 ! R17   R(8,9)                  1.4343         estimate D2E/DX2                !
 ! R18   R(9,10)                 1.4943         estimate D2E/DX2                !
 ! R19   R(9,13)                 1.4987         estimate D2E/DX2                !
 ! R20   R(10,11)                1.5521         estimate D2E/DX2                !
 ! R21   R(10,42)                1.5424         estimate D2E/DX2                !
 ! R22   R(10,43)                1.5441         estimate D2E/DX2                !
 ! R23   R(11,12)                1.5366         estimate D2E/DX2                !
 ! R24   R(11,30)                1.0914         estimate D2E/DX2                !
 ! R25   R(11,31)                1.0958         estimate D2E/DX2                !
 ! R26   R(12,13)                1.5567         estimate D2E/DX2                !
 ! R27   R(12,32)                1.096          estimate D2E/DX2                !
 ! R28   R(12,33)                1.0919         estimate D2E/DX2                !
 ! R29   R(13,14)                1.5432         estimate D2E/DX2                !
 ! R30   R(13,20)                1.541          estimate D2E/DX2                !
 ! R31   R(14,15)                1.4041         estimate D2E/DX2                !
 ! R32   R(14,19)                1.4096         estimate D2E/DX2                !
 ! R33   R(15,16)                1.4033         estimate D2E/DX2                !
 ! R34   R(15,34)                1.0836         estimate D2E/DX2                !
 ! R35   R(16,17)                1.4013         estimate D2E/DX2                !
 ! R36   R(16,35)                1.0856         estimate D2E/DX2                !
 ! R37   R(17,18)                1.404          estimate D2E/DX2                !
 ! R38   R(17,36)                1.0851         estimate D2E/DX2                !
 ! R39   R(18,19)                1.4006         estimate D2E/DX2                !
 ! R40   R(18,37)                1.0854         estimate D2E/DX2                !
 ! R41   R(19,38)                1.086          estimate D2E/DX2                !
 ! R42   R(20,39)                1.0928         estimate D2E/DX2                !
 ! R43   R(20,40)                1.0943         estimate D2E/DX2                !
 ! R44   R(20,41)                1.0923         estimate D2E/DX2                !
 ! R45   R(42,49)                1.0949         estimate D2E/DX2                !
 ! R46   R(42,50)                1.0933         estimate D2E/DX2                !
 ! R47   R(42,51)                1.0954         estimate D2E/DX2                !
 ! R48   R(43,44)                1.4112         estimate D2E/DX2                !
 ! R49   R(43,48)                1.4068         estimate D2E/DX2                !
 ! R50   R(44,45)                1.3999         estimate D2E/DX2                !
 ! R51   R(44,52)                1.0866         estimate D2E/DX2                !
 ! R52   R(45,46)                1.4036         estimate D2E/DX2                !
 ! R53   R(45,53)                1.0854         estimate D2E/DX2                !
 ! R54   R(46,47)                1.4009         estimate D2E/DX2                !
 ! R55   R(46,54)                1.0851         estimate D2E/DX2                !
 ! R56   R(47,48)                1.404          estimate D2E/DX2                !
 ! R57   R(47,55)                1.0856         estimate D2E/DX2                !
 ! R58   R(48,56)                1.0802         estimate D2E/DX2                !
 ! A1    A(2,1,21)             110.7873         estimate D2E/DX2                !
 ! A2    A(2,1,22)             110.197          estimate D2E/DX2                !
 ! A3    A(2,1,23)             109.2788         estimate D2E/DX2                !
 ! A4    A(21,1,22)            108.1652         estimate D2E/DX2                !
 ! A5    A(21,1,23)            109.036          estimate D2E/DX2                !
 ! A6    A(22,1,23)            109.3476         estimate D2E/DX2                !
 ! A7    A(1,2,3)              113.0664         estimate D2E/DX2                !
 ! A8    A(1,2,8)              110.8152         estimate D2E/DX2                !
 ! A9    A(1,2,24)             112.0417         estimate D2E/DX2                !
 ! A10   A(3,2,8)              103.0647         estimate D2E/DX2                !
 ! A11   A(3,2,24)             109.1113         estimate D2E/DX2                !
 ! A12   A(8,2,24)             108.2824         estimate D2E/DX2                !
 ! A13   A(2,3,4)              125.9271         estimate D2E/DX2                !
 ! A14   A(2,3,5)              110.3628         estimate D2E/DX2                !
 ! A15   A(4,3,5)              123.6702         estimate D2E/DX2                !
 ! A16   A(3,5,6)              119.0401         estimate D2E/DX2                !
 ! A17   A(5,6,7)              106.444          estimate D2E/DX2                !
 ! A18   A(5,6,25)             108.2848         estimate D2E/DX2                !
 ! A19   A(5,6,26)             108.3646         estimate D2E/DX2                !
 ! A20   A(7,6,25)             112.2103         estimate D2E/DX2                !
 ! A21   A(7,6,26)             112.7327         estimate D2E/DX2                !
 ! A22   A(25,6,26)            108.6328         estimate D2E/DX2                !
 ! A23   A(6,7,27)             110.3731         estimate D2E/DX2                !
 ! A24   A(6,7,28)             109.7989         estimate D2E/DX2                !
 ! A25   A(6,7,29)             110.7429         estimate D2E/DX2                !
 ! A26   A(27,7,28)            108.743          estimate D2E/DX2                !
 ! A27   A(27,7,29)            108.5864         estimate D2E/DX2                !
 ! A28   A(28,7,29)            108.5441         estimate D2E/DX2                !
 ! A29   A(2,8,9)              113.4561         estimate D2E/DX2                !
 ! A30   A(8,9,10)             115.5516         estimate D2E/DX2                !
 ! A31   A(8,9,13)             113.2398         estimate D2E/DX2                !
 ! A32   A(10,9,13)            113.4577         estimate D2E/DX2                !
 ! A33   A(9,10,11)             98.463          estimate D2E/DX2                !
 ! A34   A(9,10,42)            108.8613         estimate D2E/DX2                !
 ! A35   A(9,10,43)            117.1763         estimate D2E/DX2                !
 ! A36   A(11,10,42)           112.096          estimate D2E/DX2                !
 ! A37   A(11,10,43)           110.6149         estimate D2E/DX2                !
 ! A38   A(42,10,43)           109.3092         estimate D2E/DX2                !
 ! A39   A(10,11,12)           103.3721         estimate D2E/DX2                !
 ! A40   A(10,11,30)           112.2579         estimate D2E/DX2                !
 ! A41   A(10,11,31)           109.3827         estimate D2E/DX2                !
 ! A42   A(12,11,30)           112.6873         estimate D2E/DX2                !
 ! A43   A(12,11,31)           110.5352         estimate D2E/DX2                !
 ! A44   A(30,11,31)           108.5225         estimate D2E/DX2                !
 ! A45   A(11,12,13)           103.9371         estimate D2E/DX2                !
 ! A46   A(11,12,32)           109.803          estimate D2E/DX2                !
 ! A47   A(11,12,33)           112.9692         estimate D2E/DX2                !
 ! A48   A(13,12,32)           109.5662         estimate D2E/DX2                !
 ! A49   A(13,12,33)           111.8971         estimate D2E/DX2                !
 ! A50   A(32,12,33)           108.5809         estimate D2E/DX2                !
 ! A51   A(9,13,12)            101.9338         estimate D2E/DX2                !
 ! A52   A(9,13,14)            109.5852         estimate D2E/DX2                !
 ! A53   A(9,13,20)            112.8314         estimate D2E/DX2                !
 ! A54   A(12,13,14)           110.0635         estimate D2E/DX2                !
 ! A55   A(12,13,20)           111.4458         estimate D2E/DX2                !
 ! A56   A(14,13,20)           110.6635         estimate D2E/DX2                !
 ! A57   A(13,14,15)           121.7153         estimate D2E/DX2                !
 ! A58   A(13,14,19)           120.1261         estimate D2E/DX2                !
 ! A59   A(15,14,19)           118.1107         estimate D2E/DX2                !
 ! A60   A(14,15,16)           121.0616         estimate D2E/DX2                !
 ! A61   A(14,15,34)           118.2971         estimate D2E/DX2                !
 ! A62   A(16,15,34)           120.641          estimate D2E/DX2                !
 ! A63   A(15,16,17)           120.3261         estimate D2E/DX2                !
 ! A64   A(15,16,35)           119.6513         estimate D2E/DX2                !
 ! A65   A(17,16,35)           120.0225         estimate D2E/DX2                !
 ! A66   A(16,17,18)           119.1831         estimate D2E/DX2                !
 ! A67   A(16,17,36)           120.4739         estimate D2E/DX2                !
 ! A68   A(18,17,36)           120.3425         estimate D2E/DX2                !
 ! A69   A(17,18,19)           120.2406         estimate D2E/DX2                !
 ! A70   A(17,18,37)           120.0264         estimate D2E/DX2                !
 ! A71   A(19,18,37)           119.733          estimate D2E/DX2                !
 ! A72   A(14,19,18)           121.073          estimate D2E/DX2                !
 ! A73   A(14,19,38)           120.14           estimate D2E/DX2                !
 ! A74   A(18,19,38)           118.7857         estimate D2E/DX2                !
 ! A75   A(13,20,39)           110.3461         estimate D2E/DX2                !
 ! A76   A(13,20,40)           110.0002         estimate D2E/DX2                !
 ! A77   A(13,20,41)           111.2534         estimate D2E/DX2                !
 ! A78   A(39,20,40)           107.8036         estimate D2E/DX2                !
 ! A79   A(39,20,41)           108.6686         estimate D2E/DX2                !
 ! A80   A(40,20,41)           108.6811         estimate D2E/DX2                !
 ! A81   A(10,42,49)           111.0381         estimate D2E/DX2                !
 ! A82   A(10,42,50)           110.2139         estimate D2E/DX2                !
 ! A83   A(10,42,51)           109.3962         estimate D2E/DX2                !
 ! A84   A(49,42,50)           108.3513         estimate D2E/DX2                !
 ! A85   A(49,42,51)           108.353          estimate D2E/DX2                !
 ! A86   A(50,42,51)           109.4488         estimate D2E/DX2                !
 ! A87   A(10,43,44)           117.8119         estimate D2E/DX2                !
 ! A88   A(10,43,48)           124.388          estimate D2E/DX2                !
 ! A89   A(44,43,48)           117.791          estimate D2E/DX2                !
 ! A90   A(43,44,45)           121.5264         estimate D2E/DX2                !
 ! A91   A(43,44,52)           119.858          estimate D2E/DX2                !
 ! A92   A(45,44,52)           118.6156         estimate D2E/DX2                !
 ! A93   A(44,45,46)           120.0851         estimate D2E/DX2                !
 ! A94   A(44,45,53)           119.7693         estimate D2E/DX2                !
 ! A95   A(46,45,53)           120.1455         estimate D2E/DX2                !
 ! A96   A(45,46,47)           119.0108         estimate D2E/DX2                !
 ! A97   A(45,46,54)           120.4345         estimate D2E/DX2                !
 ! A98   A(47,46,54)           120.5547         estimate D2E/DX2                !
 ! A99   A(46,47,48)           120.7546         estimate D2E/DX2                !
 ! A100  A(46,47,55)           119.9767         estimate D2E/DX2                !
 ! A101  A(48,47,55)           119.2674         estimate D2E/DX2                !
 ! A102  A(43,48,47)           120.8311         estimate D2E/DX2                !
 ! A103  A(43,48,56)           119.6092         estimate D2E/DX2                !
 ! A104  A(47,48,56)           119.5188         estimate D2E/DX2                !
 ! D1    D(21,1,2,3)            63.2808         estimate D2E/DX2                !
 ! D2    D(21,1,2,8)           178.4151         estimate D2E/DX2                !
 ! D3    D(21,1,2,24)          -60.5214         estimate D2E/DX2                !
 ! D4    D(22,1,2,3)           -56.3864         estimate D2E/DX2                !
 ! D5    D(22,1,2,8)            58.7479         estimate D2E/DX2                !
 ! D6    D(22,1,2,24)          179.8115         estimate D2E/DX2                !
 ! D7    D(23,1,2,3)          -176.5617         estimate D2E/DX2                !
 ! D8    D(23,1,2,8)           -61.4274         estimate D2E/DX2                !
 ! D9    D(23,1,2,24)           59.6361         estimate D2E/DX2                !
 ! D10   D(1,2,3,4)              9.6155         estimate D2E/DX2                !
 ! D11   D(1,2,3,5)           -172.6236         estimate D2E/DX2                !
 ! D12   D(8,2,3,4)           -110.0751         estimate D2E/DX2                !
 ! D13   D(8,2,3,5)             67.6857         estimate D2E/DX2                !
 ! D14   D(24,2,3,4)           135.0126         estimate D2E/DX2                !
 ! D15   D(24,2,3,5)           -47.2265         estimate D2E/DX2                !
 ! D16   D(1,2,8,9)            101.6281         estimate D2E/DX2                !
 ! D17   D(3,2,8,9)           -137.1393         estimate D2E/DX2                !
 ! D18   D(24,2,8,9)           -21.6312         estimate D2E/DX2                !
 ! D19   D(2,3,5,6)           -167.8279         estimate D2E/DX2                !
 ! D20   D(4,3,5,6)              9.9935         estimate D2E/DX2                !
 ! D21   D(3,5,6,7)            164.5864         estimate D2E/DX2                !
 ! D22   D(3,5,6,25)            43.7485         estimate D2E/DX2                !
 ! D23   D(3,5,6,26)           -73.9125         estimate D2E/DX2                !
 ! D24   D(5,6,7,27)           -59.7403         estimate D2E/DX2                !
 ! D25   D(5,6,7,28)          -179.6076         estimate D2E/DX2                !
 ! D26   D(5,6,7,29)            60.5388         estimate D2E/DX2                !
 ! D27   D(25,6,7,27)           58.544          estimate D2E/DX2                !
 ! D28   D(25,6,7,28)          -61.3232         estimate D2E/DX2                !
 ! D29   D(25,6,7,29)          178.8231         estimate D2E/DX2                !
 ! D30   D(26,6,7,27)         -178.4145         estimate D2E/DX2                !
 ! D31   D(26,6,7,28)           61.7182         estimate D2E/DX2                !
 ! D32   D(26,6,7,29)          -58.1354         estimate D2E/DX2                !
 ! D33   D(2,8,9,10)           104.9055         estimate D2E/DX2                !
 ! D34   D(2,8,9,13)          -121.8207         estimate D2E/DX2                !
 ! D35   D(8,9,10,11)          162.254          estimate D2E/DX2                !
 ! D36   D(8,9,10,42)          -80.8283         estimate D2E/DX2                !
 ! D37   D(8,9,10,43)           43.7953         estimate D2E/DX2                !
 ! D38   D(13,9,10,11)          29.0802         estimate D2E/DX2                !
 ! D39   D(13,9,10,42)         145.998          estimate D2E/DX2                !
 ! D40   D(13,9,10,43)         -89.3785         estimate D2E/DX2                !
 ! D41   D(8,9,13,12)         -139.229          estimate D2E/DX2                !
 ! D42   D(8,9,13,14)          104.196          estimate D2E/DX2                !
 ! D43   D(8,9,13,20)          -19.596          estimate D2E/DX2                !
 ! D44   D(10,9,13,12)          -4.9588         estimate D2E/DX2                !
 ! D45   D(10,9,13,14)        -121.5338         estimate D2E/DX2                !
 ! D46   D(10,9,13,20)         114.6742         estimate D2E/DX2                !
 ! D47   D(9,10,11,12)         -41.4835         estimate D2E/DX2                !
 ! D48   D(9,10,11,30)        -163.1962         estimate D2E/DX2                !
 ! D49   D(9,10,11,31)          76.2821         estimate D2E/DX2                !
 ! D50   D(42,10,11,12)       -155.8864         estimate D2E/DX2                !
 ! D51   D(42,10,11,30)         82.4009         estimate D2E/DX2                !
 ! D52   D(42,10,11,31)        -38.1209         estimate D2E/DX2                !
 ! D53   D(43,10,11,12)         81.8368         estimate D2E/DX2                !
 ! D54   D(43,10,11,30)        -39.8759         estimate D2E/DX2                !
 ! D55   D(43,10,11,31)       -160.3977         estimate D2E/DX2                !
 ! D56   D(9,10,42,49)        -170.0572         estimate D2E/DX2                !
 ! D57   D(9,10,42,50)          69.8707         estimate D2E/DX2                !
 ! D58   D(9,10,42,51)         -50.5142         estimate D2E/DX2                !
 ! D59   D(11,10,42,49)        -62.2063         estimate D2E/DX2                !
 ! D60   D(11,10,42,50)        177.7215         estimate D2E/DX2                !
 ! D61   D(11,10,42,51)         57.3367         estimate D2E/DX2                !
 ! D62   D(43,10,42,49)         60.8107         estimate D2E/DX2                !
 ! D63   D(43,10,42,50)        -59.2614         estimate D2E/DX2                !
 ! D64   D(43,10,42,51)       -179.6463         estimate D2E/DX2                !
 ! D65   D(9,10,43,44)         174.0863         estimate D2E/DX2                !
 ! D66   D(9,10,43,48)          -7.0361         estimate D2E/DX2                !
 ! D67   D(11,10,43,44)         62.378          estimate D2E/DX2                !
 ! D68   D(11,10,43,48)       -118.7444         estimate D2E/DX2                !
 ! D69   D(42,10,43,44)        -61.5155         estimate D2E/DX2                !
 ! D70   D(42,10,43,48)        117.362          estimate D2E/DX2                !
 ! D71   D(10,11,12,13)         40.76           estimate D2E/DX2                !
 ! D72   D(10,11,12,32)        -76.3758         estimate D2E/DX2                !
 ! D73   D(10,11,12,33)        162.2617         estimate D2E/DX2                !
 ! D74   D(30,11,12,13)        162.1836         estimate D2E/DX2                !
 ! D75   D(30,11,12,32)         45.0479         estimate D2E/DX2                !
 ! D76   D(30,11,12,33)        -76.3147         estimate D2E/DX2                !
 ! D77   D(31,11,12,13)        -76.1967         estimate D2E/DX2                !
 ! D78   D(31,11,12,32)        166.6675         estimate D2E/DX2                !
 ! D79   D(31,11,12,33)         45.305          estimate D2E/DX2                !
 ! D80   D(11,12,13,9)         -22.0785         estimate D2E/DX2                !
 ! D81   D(11,12,13,14)         94.1491         estimate D2E/DX2                !
 ! D82   D(11,12,13,20)       -142.6833         estimate D2E/DX2                !
 ! D83   D(32,12,13,9)          95.222          estimate D2E/DX2                !
 ! D84   D(32,12,13,14)       -148.5504         estimate D2E/DX2                !
 ! D85   D(32,12,13,20)        -25.3828         estimate D2E/DX2                !
 ! D86   D(33,12,13,9)        -144.2924         estimate D2E/DX2                !
 ! D87   D(33,12,13,14)        -28.0648         estimate D2E/DX2                !
 ! D88   D(33,12,13,20)         95.1028         estimate D2E/DX2                !
 ! D89   D(9,13,14,15)           7.9014         estimate D2E/DX2                !
 ! D90   D(9,13,14,19)        -174.6625         estimate D2E/DX2                !
 ! D91   D(12,13,14,15)       -103.4203         estimate D2E/DX2                !
 ! D92   D(12,13,14,19)         74.0158         estimate D2E/DX2                !
 ! D93   D(20,13,14,15)        132.9553         estimate D2E/DX2                !
 ! D94   D(20,13,14,19)        -49.6086         estimate D2E/DX2                !
 ! D95   D(9,13,20,39)         -54.5136         estimate D2E/DX2                !
 ! D96   D(9,13,20,40)        -173.3298         estimate D2E/DX2                !
 ! D97   D(9,13,20,41)          66.1861         estimate D2E/DX2                !
 ! D98   D(12,13,20,39)         59.467          estimate D2E/DX2                !
 ! D99   D(12,13,20,40)        -59.3492         estimate D2E/DX2                !
 ! D100  D(12,13,20,41)       -179.8333         estimate D2E/DX2                !
 ! D101  D(14,13,20,39)       -177.7084         estimate D2E/DX2                !
 ! D102  D(14,13,20,40)         63.4754         estimate D2E/DX2                !
 ! D103  D(14,13,20,41)        -57.0087         estimate D2E/DX2                !
 ! D104  D(13,14,15,16)        178.224          estimate D2E/DX2                !
 ! D105  D(13,14,15,34)         -1.5618         estimate D2E/DX2                !
 ! D106  D(19,14,15,16)          0.7381         estimate D2E/DX2                !
 ! D107  D(19,14,15,34)       -179.0477         estimate D2E/DX2                !
 ! D108  D(13,14,19,18)       -178.2381         estimate D2E/DX2                !
 ! D109  D(13,14,19,38)          1.345          estimate D2E/DX2                !
 ! D110  D(15,14,19,18)         -0.7107         estimate D2E/DX2                !
 ! D111  D(15,14,19,38)        178.8724         estimate D2E/DX2                !
 ! D112  D(14,15,16,17)         -0.2307         estimate D2E/DX2                !
 ! D113  D(14,15,16,35)        179.8597         estimate D2E/DX2                !
 ! D114  D(34,15,16,17)        179.5501         estimate D2E/DX2                !
 ! D115  D(34,15,16,35)         -0.3595         estimate D2E/DX2                !
 ! D116  D(15,16,17,18)         -0.322          estimate D2E/DX2                !
 ! D117  D(15,16,17,36)        179.9258         estimate D2E/DX2                !
 ! D118  D(35,16,17,18)        179.5872         estimate D2E/DX2                !
 ! D119  D(35,16,17,36)         -0.1649         estimate D2E/DX2                !
 ! D120  D(16,17,18,19)          0.3489         estimate D2E/DX2                !
 ! D121  D(16,17,18,37)       -179.5991         estimate D2E/DX2                !
 ! D122  D(36,17,18,19)       -179.8986         estimate D2E/DX2                !
 ! D123  D(36,17,18,37)          0.1534         estimate D2E/DX2                !
 ! D124  D(17,18,19,14)          0.1747         estimate D2E/DX2                !
 ! D125  D(17,18,19,38)       -179.4139         estimate D2E/DX2                !
 ! D126  D(37,18,19,14)       -179.8772         estimate D2E/DX2                !
 ! D127  D(37,18,19,38)          0.5342         estimate D2E/DX2                !
 ! D128  D(10,43,44,45)        179.1304         estimate D2E/DX2                !
 ! D129  D(10,43,44,52)         -0.8462         estimate D2E/DX2                !
 ! D130  D(48,43,44,45)          0.1774         estimate D2E/DX2                !
 ! D131  D(48,43,44,52)       -179.7992         estimate D2E/DX2                !
 ! D132  D(10,43,48,47)       -179.2362         estimate D2E/DX2                !
 ! D133  D(10,43,48,56)         -1.5737         estimate D2E/DX2                !
 ! D134  D(44,43,48,47)         -0.3584         estimate D2E/DX2                !
 ! D135  D(44,43,48,56)        177.3041         estimate D2E/DX2                !
 ! D136  D(43,44,45,46)          0.0124         estimate D2E/DX2                !
 ! D137  D(43,44,45,53)        179.9475         estimate D2E/DX2                !
 ! D138  D(52,44,45,46)        179.9892         estimate D2E/DX2                !
 ! D139  D(52,44,45,53)         -0.0757         estimate D2E/DX2                !
 ! D140  D(44,45,46,47)         -0.0255         estimate D2E/DX2                !
 ! D141  D(44,45,46,54)        179.978          estimate D2E/DX2                !
 ! D142  D(53,45,46,47)       -179.9604         estimate D2E/DX2                !
 ! D143  D(53,45,46,54)          0.0431         estimate D2E/DX2                !
 ! D144  D(45,46,47,48)         -0.1562         estimate D2E/DX2                !
 ! D145  D(45,46,47,55)       -179.7335         estimate D2E/DX2                !
 ! D146  D(54,46,47,48)        179.8403         estimate D2E/DX2                !
 ! D147  D(54,46,47,55)          0.263          estimate D2E/DX2                !
 ! D148  D(46,47,48,43)          0.3554         estimate D2E/DX2                !
 ! D149  D(46,47,48,56)       -177.3091         estimate D2E/DX2                !
 ! D150  D(55,47,48,43)        179.9357         estimate D2E/DX2                !
 ! D151  D(55,47,48,56)          2.2712         estimate D2E/DX2                !
 --------------------------------------------------------------------------------
 Trust Radius=3.00D-01 FncErr=1.00D-07 GrdErr=1.00D-06 EigMax=2.50D+02 EigMin=1.00D-04
 Number of steps in this run=    323 maximum allowed number of steps=    336.
 GradGradGradGradGradGradGradGradGradGradGradGradGradGradGradGradGradGrad

 Leave Link  103 at Tue Jan  7 18:14:39 2025, MaxMem=  4026531840 cpu:               0.4 elap:               0.1
 (Enter /usr/local/intel/g16/l202.exe)
 Stoichiometry    C23H29NO3
 Framework group  C1[X(C23H29NO3)]
 Deg. of freedom   162
 Full point group                 C1      NOp   1
 Largest Abelian subgroup         C1      NOp   1
 Largest concise Abelian subgroup C1      NOp   1
                         Standard orientation:                         
 ---------------------------------------------------------------------
 Center     Atomic      Atomic             Coordinates (Angstroms)
 Number     Number       Type             X           Y           Z
 ---------------------------------------------------------------------
      1          6           0        1.163102    3.022126   -0.762602
      2          6           0        0.080295    2.223565   -0.053013
      3          6           0       -1.317955    2.819791   -0.230405
      4          8           0       -1.622641    3.735726   -1.000268
      5          8           0       -2.216892    2.162127    0.554460
      6          6           0       -3.655191    2.390958    0.339496
      7          6           0       -4.382911    1.267433    1.062842
      8          8           0       -0.051964    0.887970   -0.641561
      9          7           0        0.580513   -0.141619    0.131169
     10          6           0       -0.342421   -1.023224    0.908255
     11          6           0        0.634121   -2.200439    1.171764
     12          6           0        1.367297   -2.360929   -0.169108
     13          6           0        1.624937   -0.897442   -0.633091
     14          6           0        3.028135   -0.438788   -0.183512
     15          6           0        3.207774    0.422806    0.910544
     16          6           0        4.491975    0.801855    1.330394
     17          6           0        5.625702    0.319516    0.662881
     18          6           0        5.460323   -0.551926   -0.425395
     19          6           0        4.176058   -0.926409   -0.840395
     20          6           0        1.469296   -0.754662   -2.159595
     21          1           0        1.242311    4.029214   -0.341108
     22          1           0        0.927747    3.115270   -1.825674
     23          1           0        2.122981    2.510715   -0.647452
     24          1           0        0.287824    2.109025    1.014274
     25          1           0       -3.847004    2.381826   -0.737602
     26          1           0       -3.909204    3.380471    0.731457
     27          1           0       -4.080227    0.296293    0.660108
     28          1           0       -5.464143    1.381136    0.931896
     29          1           0       -4.158218    1.286354    2.133214
     30          1           0        0.113041   -3.109159    1.478005
     31          1           0        1.337713   -1.919069    1.963306
     32          1           0        0.714899   -2.865360   -0.890966
     33          1           0        2.295239   -2.929834   -0.081949
     34          1           0        2.327825    0.786959    1.427497
     35          1           0        4.604267    1.471079    2.177812
     36          1           0        6.619833    0.612018    0.984758
     37          1           0        6.329246   -0.938942   -0.948245
     38          1           0        4.075790   -1.609297   -1.678830
     39          1           0        0.460895   -1.042295   -2.467267
     40          1           0        2.176316   -1.414820   -2.671272
     41          1           0        1.653587    0.272599   -2.482039
     42          6           0       -0.744241   -0.300221    2.210080
     43          6           0       -1.613799   -1.522328    0.188111
     44          6           0       -2.429006   -2.456048    0.862716
     45          6           0       -3.608460   -2.946387    0.289965
     46          6           0       -4.005791   -2.511296   -0.983920
     47          6           0       -3.206398   -1.584333   -1.665189
     48          6           0       -2.026025   -1.091733   -1.086182
     49          1           0       -1.275742   -0.976681    2.887420
     50          1           0       -1.398678    0.546275    1.985520
     51          1           0        0.156419    0.060024    2.719023
     52          1           0       -2.144155   -2.808931    1.850171
     53          1           0       -4.213609   -3.664669    0.833945
     54          1           0       -4.918772   -2.887929   -1.433399
     55          1           0       -3.501111   -1.233865   -2.649513
     56          1           0       -1.447598   -0.344977   -1.610167
 ---------------------------------------------------------------------
 Rotational constants (GHZ):           0.2973073           0.1485768           0.1174310
 Leave Link  202 at Tue Jan  7 18:14:39 2025, MaxMem=  4026531840 cpu:               0.1 elap:               0.0
 (Enter /usr/local/intel/g16/l301.exe)
 Standard basis: def2TZVP (5D, 7F)
 Ernie: Thresh=  0.10000D-02 Tol=  0.10000D-05 Strict=F.
 There are  1146 symmetry adapted cartesian basis functions of A   symmetry.
 There are  1011 symmetry adapted basis functions of A   symmetry.
  1011 basis functions,  1609 primitive gaussians,  1146 cartesian basis functions
    99 alpha electrons       99 beta electrons
       nuclear repulsion energy      2660.2406090848 Hartrees.
 IExCor= 4336 DFT=T Ex+Corr=M062X ExCW=0 ScaHFX=  0.540000
 ScaDFX=  1.000000  1.000000  1.000000  1.000000 ScalE2=  1.000000  1.000000
 IRadAn=      5 IRanWt=     -1 IRanGd=            0 ICorTp=0 IEmpDi=  4
 NAtoms=   56 NActive=   56 NUniq=   56 SFac= 1.00D+00 NAtFMM=   60 NAOKFM=F Big=F
 Integral buffers will be    131072 words long.
 Raffenetti 2 integral format.
 Two-electron integral symmetry is turned on.
 Leave Link  301 at Tue Jan  7 18:14:39 2025, MaxMem=  4026531840 cpu:               1.4 elap:               0.1
 (Enter /usr/local/intel/g16/l302.exe)
 NPDir=0 NMtPBC=     1 NCelOv=     1 NCel=       1 NClECP=     1 NCelD=      1
         NCelK=      1 NCelE2=     1 NClLst=     1 CellRange=     0.0.
 One-electron integrals computed using PRISM.
 One-electron integral symmetry used in STVInt
   1 Symmetry operations used in ECPInt.
 ECPInt:  NShTT=   85491 NPrTT=  255936 LenC2=   74240 LenP2D=  155568.
 LDataN:  DoStor=T MaxTD1= 6 Len=  172
 NBasis=  1011 RedAO= T EigKep=  7.22D-06  NBF=  1011
 NBsUse=  1011 1.00D-06 EigRej= -1.00D+00 NBFU=  1011
 Precomputing XC quadrature grid using
 IXCGrd= 4 IRadAn=           5 IRanWt=          -1 IRanGd=           0 AccXCQ= 0.00D+00.
 Generated NRdTot=       0 NPtTot=           0 NUsed=           0 NTot=          32
 NSgBfM=  1119  1119  1119  1119  1119 MxSgAt=    56 MxSgA2=    56.
 Leave Link  302 at Tue Jan  7 18:14:43 2025, MaxMem=  4026531840 cpu:              78.5 elap:               3.9
 (Enter /usr/local/intel/g16/l303.exe)
 DipDrv:  MaxL=1.
 Leave Link  303 at Tue Jan  7 18:14:44 2025, MaxMem=  4026531840 cpu:               7.6 elap:               0.5
 (Enter /usr/local/intel/g16/l401.exe)
 ExpMin= 9.52D-02 ExpMax= 2.70D+04 ExpMxC= 9.22D+02 IAcc=3 IRadAn=         5 AccDes= 0.00D+00
 Harris functional with IExCor= 1009 and IRadAn=       5 diagonalized for initial guess.
 HarFok:  IExCor= 1009 AccDes= 0.00D+00 IRadAn=         5 IDoV= 1 UseB2=F ITyADJ=14
 ICtDFT=  3500011 ScaDFX=  1.000000  1.000000  1.000000  1.000000
 FoFCou: FMM=F IPFlag=           0 FMFlag=      100000 FMFlg1=           0
         NFxFlg=           0 DoJE=T BraDBF=F KetDBF=T FulRan=T
         wScrn=  0.000000 ICntrl=       500 IOpCl=  0 I1Cent=   200000004 NGrid=           0
         NMat0=    1 NMatS0=      1 NMatT0=    0 NMatD0=    1 NMtDS0=    0 NMtDT0=    0
 Petite list used in FoFCou.
 Harris En= -1173.73156671553    
 JPrj=0 DoOrth=F DoCkMO=F.
 Leave Link  401 at Tue Jan  7 18:14:54 2025, MaxMem=  4026531840 cpu:             205.1 elap:              10.3
 (Enter /usr/local/intel/g16/l502.exe)
 Integral symmetry usage will be decided dynamically.
 Closed shell SCF:
 Using DIIS extrapolation, IDIIS=  1040.
 NGot=  4026531840 LenX=  4023870798 LenY=  4022556336
 Requested convergence on RMS density matrix=1.00D-08 within 128 cycles.
 Requested convergence on MAX density matrix=1.00D-06.
 Requested convergence on             energy=1.00D-06.
 No special actions if energy rises.
 Fock matrices will be formed incrementally for  20 cycles.
 Integral accuracy reduced to 1.0D-05 until final iterations.

 Cycle   1  Pass 0  IDiag  1:
 FoFJK:  IHMeth= 1 ICntrl=       0 DoSepK=F KAlg= 0 I1Cent=           0 FoldK=F
 IRaf= 790000000 NMat=       1 IRICut=       1 DoRegI=T DoRafI=F ISym2E= 0 IDoP0=0 IntGTp=1.
 FoFCou: FMM=F IPFlag=           0 FMFlag=      100000 FMFlg1=           0
         NFxFlg=           0 DoJE=F BraDBF=F KetDBF=F FulRan=T
         wScrn=  0.000000 ICntrl=         0 IOpCl=  0 I1Cent=           0 NGrid=           0
         NMat0=    1 NMatS0=      1 NMatT0=    0 NMatD0=    1 NMtDS0=    0 NMtDT0=    0
 Symmetry not used in FoFCou.
 E= -1173.46687090888    
 DIIS: error= 1.53D-02 at cycle   1 NSaved=   1.
 NSaved= 1 IEnMin= 1 EnMin= -1173.46687090888     IErMin= 1 ErrMin= 1.53D-02
 ErrMax= 1.53D-02  0.00D+00 EMaxC= 1.00D-01 BMatC= 9.09D-01 BMatP= 9.09D-01
 IDIUse=3 WtCom= 8.47D-01 WtEn= 1.53D-01
 Coeff-Com:  0.100D+01
 Coeff-En:   0.100D+01
 Coeff:      0.100D+01
 Gap=     0.399 Goal=   None    Shift=    0.000
 GapD=    0.399 DampG=1.000 DampE=0.500 DampFc=0.5000 IDamp=-1.
 Damping current iteration by 5.00D-01
 RMSDP=8.14D+01 MaxDP=7.32D+03              OVMax= 8.33D-01

 Problem detected with inexpensive integrals.
 Switching to full accuracy and repeating last cycle.
 Cycle   2  Pass 1  IDiag  1:
 E= -1173.46680003836     Delta-E=        0.000070870521 Rises=F Damp=F
 DIIS: error= 1.53D-02 at cycle   1 NSaved=   1.
 NSaved= 1 IEnMin= 1 EnMin= -1173.46680003836     IErMin= 1 ErrMin= 1.53D-02
 ErrMax= 1.53D-02  0.00D+00 EMaxC= 1.00D-01 BMatC= 9.09D-01 BMatP= 9.09D-01
 IDIUse=3 WtCom= 8.47D-01 WtEn= 1.53D-01
 Coeff-Com:  0.100D+01
 Coeff-En:   0.100D+01
 Coeff:      0.100D+01
 Gap=     0.399 Goal=   None    Shift=    0.000
 GapD=    0.399 DampG=1.000 DampE=0.500 DampFc=0.5000 IDamp=-1.
 Damping current iteration by 5.00D-01
 RMSDP=2.04D-03 MaxDP=1.70D-01 DE= 7.09D-05 OVMax= 1.89D-01

 Cycle   3  Pass 1  IDiag  1:
 RMSU=  1.01D-03    CP:  9.72D-01
 E= -1173.84552450056     Delta-E=       -0.378724462194 Rises=F Damp=T
 DIIS: error= 3.89D-03 at cycle   2 NSaved=   2.
 NSaved= 2 IEnMin= 2 EnMin= -1173.84552450056     IErMin= 2 ErrMin= 3.89D-03
 ErrMax= 3.89D-03  0.00D+00 EMaxC= 1.00D-01 BMatC= 7.77D-02 BMatP= 9.09D-01
 IDIUse=3 WtCom= 9.61D-01 WtEn= 3.89D-02
 Coeff-Com: -0.948D-01 0.109D+01
 Coeff-En:   0.000D+00 0.100D+01
 Coeff:     -0.911D-01 0.109D+01
 Gap=     0.326 Goal=   None    Shift=    0.000
 GapD=    0.326 DampG=1.000 DampE=1.000 DampFc=1.0000 IDamp=-1.
 RMSDP=9.35D-04 MaxDP=4.87D-02 DE=-3.79D-01 OVMax= 1.10D-01

 Cycle   4  Pass 1  IDiag  1:
 RMSU=  8.72D-04    CP:  9.45D-01  1.30D+00
 E= -1174.18877797853     Delta-E=       -0.343253477969 Rises=F Damp=F
 DIIS: error= 5.66D-03 at cycle   3 NSaved=   3.
 NSaved= 3 IEnMin= 3 EnMin= -1174.18877797853     IErMin= 2 ErrMin= 3.89D-03
 ErrMax= 5.66D-03  0.00D+00 EMaxC= 1.00D-01 BMatC= 4.59D-02 BMatP= 7.77D-02
 IDIUse=3 WtCom= 9.43D-01 WtEn= 5.66D-02
 Coeff-Com: -0.109D+00 0.505D+00 0.604D+00
 Coeff-En:   0.000D+00 0.000D+00 0.100D+01
 Coeff:     -0.102D+00 0.476D+00 0.626D+00
 Gap=     0.305 Goal=   None    Shift=    0.000
 RMSDP=2.67D-04 MaxDP=2.83D-02 DE=-3.43D-01 OVMax= 7.65D-02

 Cycle   5  Pass 1  IDiag  1:
 RMSU=  2.53D-04    CP:  9.44D-01  1.35D+00  9.17D-01
 E= -1174.21342065251     Delta-E=       -0.024642673981 Rises=F Damp=F
 DIIS: error= 2.67D-03 at cycle   4 NSaved=   4.
 NSaved= 4 IEnMin= 4 EnMin= -1174.21342065251     IErMin= 4 ErrMin= 2.67D-03
 ErrMax= 2.67D-03  0.00D+00 EMaxC= 1.00D-01 BMatC= 1.16D-02 BMatP= 4.59D-02
 IDIUse=3 WtCom= 9.73D-01 WtEn= 2.67D-02
 Coeff-Com: -0.425D-01 0.118D+00 0.366D+00 0.559D+00
 Coeff-En:   0.000D+00 0.000D+00 0.211D+00 0.789D+00
 Coeff:     -0.414D-01 0.115D+00 0.362D+00 0.565D+00
 Gap=     0.301 Goal=   None    Shift=    0.000
 RMSDP=1.07D-04 MaxDP=1.06D-02 DE=-2.46D-02 OVMax= 2.48D-02

 Cycle   6  Pass 1  IDiag  1:
 RMSU=  6.37D-05    CP:  9.43D-01  1.35D+00  9.33D-01  6.65D-01
 E= -1174.22180232485     Delta-E=       -0.008381672342 Rises=F Damp=F
 DIIS: error= 4.05D-04 at cycle   5 NSaved=   5.
 NSaved= 5 IEnMin= 5 EnMin= -1174.22180232485     IErMin= 5 ErrMin= 4.05D-04
 ErrMax= 4.05D-04  0.00D+00 EMaxC= 1.00D-01 BMatC= 2.83D-04 BMatP= 1.16D-02
 IDIUse=3 WtCom= 9.96D-01 WtEn= 4.05D-03
 Coeff-Com: -0.113D-01 0.234D-01 0.116D+00 0.235D+00 0.638D+00
 Coeff-En:   0.000D+00 0.000D+00 0.000D+00 0.000D+00 0.100D+01
 Coeff:     -0.113D-01 0.233D-01 0.115D+00 0.234D+00 0.639D+00
 Gap=     0.298 Goal=   None    Shift=    0.000
 RMSDP=2.11D-05 MaxDP=1.69D-03 DE=-8.38D-03 OVMax= 4.89D-03

 Cycle   7  Pass 1  IDiag  1:
 RMSU=  1.82D-05    CP:  9.43D-01  1.35D+00  9.39D-01  6.67D-01  8.61D-01
 E= -1174.22200215879     Delta-E=       -0.000199833943 Rises=F Damp=F
 DIIS: error= 1.11D-04 at cycle   6 NSaved=   6.
 NSaved= 6 IEnMin= 6 EnMin= -1174.22200215879     IErMin= 6 ErrMin= 1.11D-04
 ErrMax= 1.11D-04  0.00D+00 EMaxC= 1.00D-01 BMatC= 3.74D-05 BMatP= 2.83D-04
 IDIUse=3 WtCom= 9.99D-01 WtEn= 1.11D-03
 Coeff-Com: -0.160D-02 0.854D-03 0.231D-01 0.623D-01 0.318D+00 0.598D+00
 Coeff-En:   0.000D+00 0.000D+00 0.000D+00 0.000D+00 0.000D+00 0.100D+01
 Coeff:     -0.160D-02 0.853D-03 0.231D-01 0.622D-01 0.317D+00 0.598D+00
 Gap=     0.299 Goal=   None    Shift=    0.000
 RMSDP=7.64D-06 MaxDP=5.69D-04 DE=-2.00D-04 OVMax= 8.30D-04

 Cycle   8  Pass 1  IDiag  1:
 RMSU=  6.47D-06    CP:  9.43D-01  1.35D+00  9.39D-01  6.73D-01  9.06D-01
                    CP:  8.85D-01
 E= -1174.22203091831     Delta-E=       -0.000028759523 Rises=F Damp=F
 DIIS: error= 3.17D-05 at cycle   7 NSaved=   7.
 NSaved= 7 IEnMin= 7 EnMin= -1174.22203091831     IErMin= 7 ErrMin= 3.17D-05
 ErrMax= 3.17D-05  0.00D+00 EMaxC= 1.00D-01 BMatC= 1.52D-06 BMatP= 3.74D-05
 IDIUse=1 WtCom= 1.00D+00 WtEn= 0.00D+00
 Coeff-Com:  0.943D-03-0.264D-02-0.615D-02-0.997D-02 0.251D-01 0.160D+00
 Coeff-Com:  0.832D+00
 Coeff:      0.943D-03-0.264D-02-0.615D-02-0.997D-02 0.251D-01 0.160D+00
 Coeff:      0.832D+00
 Gap=     0.299 Goal=   None    Shift=    0.000
 RMSDP=2.78D-06 MaxDP=2.47D-04 DE=-2.88D-05 OVMax= 3.88D-04

 Cycle   9  Pass 1  IDiag  1:
 RMSU=  2.16D-06    CP:  9.43D-01  1.35D+00  9.40D-01  6.73D-01  9.26D-01
                    CP:  9.30D-01  1.06D+00
 E= -1174.22203230476     Delta-E=       -0.000001386449 Rises=F Damp=F
 DIIS: error= 1.58D-05 at cycle   8 NSaved=   8.
 NSaved= 8 IEnMin= 8 EnMin= -1174.22203230476     IErMin= 8 ErrMin= 1.58D-05
 ErrMax= 1.58D-05  0.00D+00 EMaxC= 1.00D-01 BMatC= 3.69D-07 BMatP= 1.52D-06
 IDIUse=1 WtCom= 1.00D+00 WtEn= 0.00D+00
 Coeff-Com:  0.589D-03-0.130D-02-0.473D-02-0.110D-01-0.180D-01 0.119D-01
 Coeff-Com:  0.376D+00 0.647D+00
 Coeff:      0.589D-03-0.130D-02-0.473D-02-0.110D-01-0.180D-01 0.119D-01
 Coeff:      0.376D+00 0.647D+00
 Gap=     0.299 Goal=   None    Shift=    0.000
 RMSDP=1.12D-06 MaxDP=9.37D-05 DE=-1.39D-06 OVMax= 2.15D-04

 Cycle  10  Pass 1  IDiag  1:
 RMSU=  7.82D-07    CP:  9.43D-01  1.35D+00  9.40D-01  6.72D-01  9.32D-01
                    CP:  9.46D-01  1.10D+00  8.85D-01
 E= -1174.22203267197     Delta-E=       -0.000000367201 Rises=F Damp=F
 DIIS: error= 5.54D-06 at cycle   9 NSaved=   9.
 NSaved= 9 IEnMin= 9 EnMin= -1174.22203267197     IErMin= 9 ErrMin= 5.54D-06
 ErrMax= 5.54D-06  0.00D+00 EMaxC= 1.00D-01 BMatC= 4.55D-08 BMatP= 3.69D-07
 IDIUse=1 WtCom= 1.00D+00 WtEn= 0.00D+00
 Coeff-Com:  0.153D-03-0.286D-03-0.128D-02-0.386D-02-0.976D-02-0.125D-01
 Coeff-Com:  0.700D-01 0.286D+00 0.672D+00
 Coeff:      0.153D-03-0.286D-03-0.128D-02-0.386D-02-0.976D-02-0.125D-01
 Coeff:      0.700D-01 0.286D+00 0.672D+00
 Gap=     0.299 Goal=   None    Shift=    0.000
 RMSDP=3.82D-07 MaxDP=3.27D-05 DE=-3.67D-07 OVMax= 8.10D-05

 Cycle  11  Pass 1  IDiag  1:
 RMSU=  2.87D-07    CP:  9.43D-01  1.35D+00  9.40D-01  6.72D-01  9.33D-01
                    CP:  9.46D-01  1.11D+00  9.73D-01  8.55D-01
 E= -1174.22203271976     Delta-E=       -0.000000047799 Rises=F Damp=F
 DIIS: error= 1.82D-06 at cycle  10 NSaved=  10.
 NSaved=10 IEnMin=10 EnMin= -1174.22203271976     IErMin=10 ErrMin= 1.82D-06
 ErrMax= 1.82D-06  0.00D+00 EMaxC= 1.00D-01 BMatC= 6.60D-09 BMatP= 4.55D-08
 IDIUse=1 WtCom= 1.00D+00 WtEn= 0.00D+00
 Coeff-Com: -0.380D-04 0.101D-03 0.354D-03 0.319D-03-0.409D-03-0.742D-02
 Coeff-Com: -0.393D-01-0.252D-02 0.281D+00 0.768D+00
 Coeff:     -0.380D-04 0.101D-03 0.354D-03 0.319D-03-0.409D-03-0.742D-02
 Coeff:     -0.393D-01-0.252D-02 0.281D+00 0.768D+00
 Gap=     0.299 Goal=   None    Shift=    0.000
 RMSDP=1.66D-07 MaxDP=1.84D-05 DE=-4.78D-08 OVMax= 3.35D-05

 Cycle  12  Pass 1  IDiag  1:
 RMSU=  1.23D-07    CP:  9.43D-01  1.35D+00  9.40D-01  6.71D-01  9.33D-01
                    CP:  9.46D-01  1.12D+00  9.93D-01  9.42D-01  1.03D+00
 E= -1174.22203272786     Delta-E=       -0.000000008094 Rises=F Damp=F
 DIIS: error= 4.31D-07 at cycle  11 NSaved=  11.
 NSaved=11 IEnMin=11 EnMin= -1174.22203272786     IErMin=11 ErrMin= 4.31D-07
 ErrMax= 4.31D-07  0.00D+00 EMaxC= 1.00D-01 BMatC= 5.93D-10 BMatP= 6.60D-09
 IDIUse=1 WtCom= 1.00D+00 WtEn= 0.00D+00
 Coeff-Com: -0.264D-04 0.598D-04 0.255D-03 0.471D-03 0.908D-03-0.116D-02
 Coeff-Com: -0.194D-01-0.331D-01 0.139D-01 0.260D+00 0.779D+00
 Coeff:     -0.264D-04 0.598D-04 0.255D-03 0.471D-03 0.908D-03-0.116D-02
 Coeff:     -0.194D-01-0.331D-01 0.139D-01 0.260D+00 0.779D+00
 Gap=     0.299 Goal=   None    Shift=    0.000
 RMSDP=4.62D-08 MaxDP=4.68D-06 DE=-8.09D-09 OVMax= 1.12D-05

 Cycle  13  Pass 1  IDiag  1:
 RMSU=  3.30D-08    CP:  9.43D-01  1.35D+00  9.40D-01  6.71D-01  9.33D-01
                    CP:  9.46D-01  1.12D+00  1.00D+00  9.56D-01  1.09D+00
                    CP:  1.02D+00
 E= -1174.22203272846     Delta-E=       -0.000000000602 Rises=F Damp=F
 DIIS: error= 2.45D-07 at cycle  12 NSaved=  12.
 NSaved=12 IEnMin=12 EnMin= -1174.22203272846     IErMin=12 ErrMin= 2.45D-07
 ErrMax= 2.45D-07  0.00D+00 EMaxC= 1.00D-01 BMatC= 9.16D-11 BMatP= 5.93D-10
 IDIUse=1 WtCom= 1.00D+00 WtEn= 0.00D+00
 Coeff-Com: -0.512D-05 0.103D-04 0.658D-04 0.147D-03 0.469D-03 0.419D-03
 Coeff-Com: -0.296D-02-0.131D-01-0.294D-01 0.138D-01 0.314D+00 0.716D+00
 Coeff:     -0.512D-05 0.103D-04 0.658D-04 0.147D-03 0.469D-03 0.419D-03
 Coeff:     -0.296D-02-0.131D-01-0.294D-01 0.138D-01 0.314D+00 0.716D+00
 Gap=     0.299 Goal=   None    Shift=    0.000
 RMSDP=1.49D-08 MaxDP=1.40D-06 DE=-6.02D-10 OVMax= 3.60D-06

 Cycle  14  Pass 1  IDiag  1:
 RMSU=  1.19D-08    CP:  9.43D-01  1.35D+00  9.40D-01  6.71D-01  9.33D-01
                    CP:  9.46D-01  1.12D+00  1.00D+00  9.58D-01  1.10D+00
                    CP:  1.05D+00  9.66D-01
 E= -1174.22203272861     Delta-E=       -0.000000000149 Rises=F Damp=F
 DIIS: error= 9.13D-08 at cycle  13 NSaved=  13.
 NSaved=13 IEnMin=13 EnMin= -1174.22203272861     IErMin=13 ErrMin= 9.13D-08
 ErrMax= 9.13D-08  0.00D+00 EMaxC= 1.00D-01 BMatC= 1.17D-11 BMatP= 9.16D-11
 IDIUse=1 WtCom= 1.00D+00 WtEn= 0.00D+00
 Coeff-Com:  0.701D-06-0.203D-05 0.274D-05 0.994D-05 0.105D-03 0.258D-03
 Coeff-Com:  0.728D-03-0.187D-02-0.145D-01-0.241D-01 0.423D-01 0.299D+00
 Coeff-Com:  0.698D+00
 Coeff:      0.701D-06-0.203D-05 0.274D-05 0.994D-05 0.105D-03 0.258D-03
 Coeff:      0.728D-03-0.187D-02-0.145D-01-0.241D-01 0.423D-01 0.299D+00
 Coeff:      0.698D+00
 Gap=     0.299 Goal=   None    Shift=    0.000
 RMSDP=5.54D-09 MaxDP=5.05D-07 DE=-1.49D-10 OVMax= 1.14D-06

 SCF Done:  E(RM062X) =  -1174.22203273     A.U. after   14 cycles
            NFock= 14  Conv=0.55D-08     -V/T= 2.0059
 KE= 1.167281156413D+03 PE=-8.052137773489D+03 EE= 3.050393975263D+03
 Leave Link  502 at Tue Jan  7 18:44:55 2025, MaxMem=  4026531840 cpu:           35999.1 elap:            1800.5
 (Enter /usr/local/intel/g16/l601.exe)
 Copying SCF densities to generalized density rwf, IOpCl= 0 IROHF=0.

 **********************************************************************

            Population analysis using the SCF Density.

 **********************************************************************

 Orbital symmetries:
       Occupied  (A) (A) (A) (A) (A) (A) (A) (A) (A) (A) (A) (A)
                 (A) (A) (A) (A) (A) (A) (A) (A) (A) (A) (A) (A)
                 (A) (A) (A) (A) (A) (A) (A) (A) (A) (A) (A) (A)
                 (A) (A) (A) (A) (A) (A) (A) (A) (A) (A) (A) (A)
                 (A) (A) (A) (A) (A) (A) (A) (A) (A) (A) (A) (A)
                 (A) (A) (A) (A) (A) (A) (A) (A) (A) (A) (A) (A)
                 (A) (A) (A) (A) (A) (A) (A) (A) (A) (A) (A) (A)
                 (A) (A) (A) (A) (A) (A) (A) (A) (A) (A) (A) (A)
                 (A) (A) (A)
       Virtual   (A) (A) (A) (A) (A) (A) (A) (A) (A) (A) (A) (A)
                 (A) (A) (A) (A) (A) (A) (A) (A) (A) (A) (A) (A)
                 (A) (A) (A) (A) (A) (A) (A) (A) (A) (A) (A) (A)
                 (A) (A) (A) (A) (A) (A) (A) (A) (A) (A) (A) (A)
                 (A) (A) (A) (A) (A) (A) (A) (A) (A) (A) (A) (A)
                 (A) (A) (A) (A) (A) (A) (A) (A) (A) (A) (A) (A)
                 (A) (A) (A) (A) (A) (A) (A) (A) (A) (A) (A) (A)
                 (A) (A) (A) (A) (A) (A) (A) (A) (A) (A) (A) (A)
                 (A) (A) (A) (A) (A) (A) (A) (A) (A) (A) (A) (A)
                 (A) (A) (A) (A) (A) (A) (A) (A) (A) (A) (A) (A)
                 (A) (A) (A) (A) (A) (A) (A) (A) (A) (A) (A) (A)
                 (A) (A) (A) (A) (A) (A) (A) (A) (A) (A) (A) (A)
                 (A) (A) (A) (A) (A) (A) (A) (A) (A) (A) (A) (A)
                 (A) (A) (A) (A) (A) (A) (A) (A) (A) (A) (A) (A)
                 (A) (A) (A) (A) (A) (A) (A) (A) (A) (A) (A) (A)
                 (A) (A) (A) (A) (A) (A) (A) (A) (A) (A) (A) (A)
                 (A) (A) (A) (A) (A) (A) (A) (A) (A) (A) (A) (A)
                 (A) (A) (A) (A) (A) (A) (A) (A) (A) (A) (A) (A)
                 (A) (A) (A) (A) (A) (A) (A) (A) (A) (A) (A) (A)
                 (A) (A) (A) (A) (A) (A) (A) (A) (A) (A) (A) (A)
                 (A) (A) (A) (A) (A) (A) (A) (A) (A) (A) (A) (A)
                 (A) (A) (A) (A) (A) (A) (A) (A) (A) (A) (A) (A)
                 (A) (A) (A) (A) (A) (A) (A) (A) (A) (A) (A) (A)
                 (A) (A) (A) (A) (A) (A) (A) (A) (A) (A) (A) (A)
                 (A) (A) (A) (A) (A) (A) (A) (A) (A) (A) (A) (A)
                 (A) (A) (A) (A) (A) (A) (A) (A) (A) (A) (A) (A)
                 (A) (A) (A) (A) (A) (A) (A) (A) (A) (A) (A) (A)
                 (A) (A) (A) (A) (A) (A) (A) (A) (A) (A) (A) (A)
                 (A) (A) (A) (A) (A) (A) (A) (A) (A) (A) (A) (A)
                 (A) (A) (A) (A) (A) (A) (A) (A) (A) (A) (A) (A)
                 (A) (A) (A) (A) (A) (A) (A) (A) (A) (A) (A) (A)
                 (A) (A) (A) (A) (A) (A) (A) (A) (A) (A) (A) (A)
                 (A) (A) (A) (A) (A) (A) (A) (A) (A) (A) (A) (A)
                 (A) (A) (A) (A) (A) (A) (A) (A) (A) (A) (A) (A)
                 (A) (A) (A) (A) (A) (A) (A) (A) (A) (A) (A) (A)
                 (A) (A) (A) (A) (A) (A) (A) (A) (A) (A) (A) (A)
                 (A) (A) (A) (A) (A) (A) (A) (A) (A) (A) (A) (A)
                 (A) (A) (A) (A) (A) (A) (A) (A) (A) (A) (A) (A)
                 (A) (A) (A) (A) (A) (A) (A) (A) (A) (A) (A) (A)
                 (A) (A) (A) (A) (A) (A) (A) (A) (A) (A) (A) (A)
                 (A) (A) (A) (A) (A) (A) (A) (A) (A) (A) (A) (A)
                 (A) (A) (A) (A) (A) (A) (A) (A) (A) (A) (A) (A)
                 (A) (A) (A) (A) (A) (A) (A) (A) (A) (A) (A) (A)
                 (A) (A) (A) (A) (A) (A) (A) (A) (A) (A) (A) (A)
                 (A) (A) (A) (A) (A) (A) (A) (A) (A) (A) (A) (A)
                 (A) (A) (A) (A) (A) (A) (A) (A) (A) (A) (A) (A)
                 (A) (A) (A) (A) (A) (A) (A) (A) (A) (A) (A) (A)
                 (A) (A) (A) (A) (A) (A) (A) (A) (A) (A) (A) (A)
                 (A) (A) (A) (A) (A) (A) (A) (A) (A) (A) (A) (A)
                 (A) (A) (A) (A) (A) (A) (A) (A) (A) (A) (A) (A)
                 (A) (A) (A) (A) (A) (A) (A) (A) (A) (A) (A) (A)
                 (A) (A) (A) (A) (A) (A) (A) (A) (A) (A) (A) (A)
                 (A) (A) (A) (A) (A) (A) (A) (A) (A) (A) (A) (A)
                 (A) (A) (A) (A) (A) (A) (A) (A) (A) (A) (A) (A)
                 (A) (A) (A) (A) (A) (A) (A) (A) (A) (A) (A) (A)
                 (A) (A) (A) (A) (A) (A) (A) (A) (A) (A) (A) (A)
                 (A) (A) (A) (A) (A) (A) (A) (A) (A) (A) (A) (A)
                 (A) (A) (A) (A) (A) (A) (A) (A) (A) (A) (A) (A)
                 (A) (A) (A) (A) (A) (A) (A) (A) (A) (A) (A) (A)
                 (A) (A) (A) (A) (A) (A) (A) (A) (A) (A) (A) (A)
                 (A) (A) (A) (A) (A) (A) (A) (A) (A) (A) (A) (A)
                 (A) (A) (A) (A) (A) (A) (A) (A) (A) (A) (A) (A)
                 (A) (A) (A) (A) (A) (A) (A) (A) (A) (A) (A) (A)
                 (A) (A) (A) (A) (A) (A) (A) (A) (A) (A) (A) (A)
                 (A) (A) (A) (A) (A) (A) (A) (A) (A) (A) (A) (A)
                 (A) (A) (A) (A) (A) (A) (A) (A) (A) (A) (A) (A)
                 (A) (A) (A) (A) (A) (A) (A) (A) (A) (A) (A) (A)
                 (A) (A) (A) (A) (A) (A) (A) (A) (A) (A) (A) (A)
                 (A) (A) (A) (A) (A) (A) (A) (A) (A) (A) (A) (A)
                 (A) (A) (A) (A) (A) (A) (A) (A) (A) (A) (A) (A)
                 (A) (A) (A) (A) (A) (A) (A) (A) (A) (A) (A) (A)
                 (A) (A) (A) (A) (A) (A) (A) (A) (A) (A) (A) (A)
                 (A) (A) (A) (A) (A) (A) (A) (A) (A) (A) (A) (A)
                 (A) (A) (A) (A) (A) (A) (A) (A) (A) (A) (A) (A)
                 (A) (A) (A) (A) (A) (A) (A) (A) (A) (A) (A) (A)
                 (A) (A) (A) (A) (A) (A) (A) (A) (A) (A) (A) (A)
 The electronic state is 1-A.
 Alpha  occ. eigenvalues --  -19.66941 -19.66449 -19.62159 -14.78931 -10.67760
 Alpha  occ. eigenvalues --  -10.60907 -10.59849 -10.58932 -10.58862 -10.55405
 Alpha  occ. eigenvalues --  -10.55046 -10.54629 -10.54507 -10.54507 -10.54429
 Alpha  occ. eigenvalues --  -10.54401 -10.54350 -10.54346 -10.54266 -10.54049
 Alpha  occ. eigenvalues --  -10.53901 -10.53870 -10.53824 -10.53193 -10.52791
 Alpha  occ. eigenvalues --  -10.52608 -10.52404  -1.21890  -1.18647  -1.12838
 Alpha  occ. eigenvalues --   -1.01107  -0.95994  -0.95005  -0.89662  -0.89200
 Alpha  occ. eigenvalues --   -0.86467  -0.84214  -0.83923  -0.83876  -0.82915
 Alpha  occ. eigenvalues --   -0.82103  -0.79765  -0.75956  -0.73407  -0.70511
 Alpha  occ. eigenvalues --   -0.69978  -0.69313  -0.68363  -0.68187  -0.64609
 Alpha  occ. eigenvalues --   -0.64465  -0.63495  -0.60495  -0.60194  -0.58641
 Alpha  occ. eigenvalues --   -0.56778  -0.55893  -0.55819  -0.55096  -0.53410
 Alpha  occ. eigenvalues --   -0.52126  -0.51871  -0.51574  -0.50660  -0.50510
 Alpha  occ. eigenvalues --   -0.49649  -0.49010  -0.48965  -0.48589  -0.48265
 Alpha  occ. eigenvalues --   -0.47918  -0.47249  -0.46694  -0.45810  -0.45577
 Alpha  occ. eigenvalues --   -0.45267  -0.45117  -0.44029  -0.43501  -0.43267
 Alpha  occ. eigenvalues --   -0.43056  -0.42449  -0.42044  -0.41765  -0.41454
 Alpha  occ. eigenvalues --   -0.40706  -0.40005  -0.39695  -0.38657  -0.38464
 Alpha  occ. eigenvalues --   -0.37944  -0.37301  -0.36189  -0.34110  -0.30670
 Alpha  occ. eigenvalues --   -0.30582  -0.29845  -0.29679  -0.28498
 Alpha virt. eigenvalues --    0.01417   0.01545   0.01936   0.02206   0.02652
 Alpha virt. eigenvalues --    0.06048   0.07440   0.07552   0.07688   0.08543
 Alpha virt. eigenvalues --    0.08855   0.09941   0.10542   0.10565   0.10891
 Alpha virt. eigenvalues --    0.11372   0.12062   0.12566   0.12667   0.12955
 Alpha virt. eigenvalues --    0.13306   0.13652   0.13932   0.14154   0.14544
 Alpha virt. eigenvalues --    0.14751   0.15282   0.15682   0.16353   0.16645
 Alpha virt. eigenvalues --    0.16751   0.17155   0.17289   0.17426   0.17691
 Alpha virt. eigenvalues --    0.18073   0.18206   0.19015   0.19580   0.19833
 Alpha virt. eigenvalues --    0.20176   0.20342   0.20860   0.21105   0.22090
 Alpha virt. eigenvalues --    0.22162   0.22448   0.23205   0.23451   0.23750
 Alpha virt. eigenvalues --    0.23917   0.24651   0.24716   0.24942   0.25274
 Alpha virt. eigenvalues --    0.25523   0.26008   0.26224   0.26564   0.27036
 Alpha virt. eigenvalues --    0.27411   0.27772   0.28614   0.28903   0.29054
 Alpha virt. eigenvalues --    0.30042   0.30210   0.30873   0.31331   0.31429
 Alpha virt. eigenvalues --    0.31846   0.32289   0.32705   0.32832   0.33402
 Alpha virt. eigenvalues --    0.34096   0.34599   0.34713   0.35085   0.35814
 Alpha virt. eigenvalues --    0.36223   0.36306   0.36758   0.37204   0.37576
 Alpha virt. eigenvalues --    0.37763   0.38046   0.38583   0.38788   0.39121
 Alpha virt. eigenvalues --    0.39684   0.39936   0.40477   0.40950   0.41139
 Alpha virt. eigenvalues --    0.41654   0.41721   0.42106   0.42512   0.42759
 Alpha virt. eigenvalues --    0.42826   0.42931   0.43405   0.43563   0.44026
 Alpha virt. eigenvalues --    0.44302   0.44511   0.44961   0.44979   0.45452
 Alpha virt. eigenvalues --    0.45780   0.45792   0.46231   0.46464   0.46753
 Alpha virt. eigenvalues --    0.46879   0.47233   0.47422   0.47747   0.48054
 Alpha virt. eigenvalues --    0.48372   0.48932   0.49168   0.49600   0.49783
 Alpha virt. eigenvalues --    0.50132   0.50359   0.50457   0.50791   0.51254
 Alpha virt. eigenvalues --    0.51652   0.51887   0.52341   0.52639   0.53069
 Alpha virt. eigenvalues --    0.53454   0.53725   0.54173   0.54313   0.54665
 Alpha virt. eigenvalues --    0.54878   0.55281   0.56164   0.56261   0.56418
 Alpha virt. eigenvalues --    0.57005   0.57414   0.58351   0.58527   0.58835
 Alpha virt. eigenvalues --    0.59496   0.59709   0.59967   0.61476   0.61805
 Alpha virt. eigenvalues --    0.62252   0.62611   0.62975   0.63327   0.64184
 Alpha virt. eigenvalues --    0.64532   0.65282   0.65393   0.65816   0.66227
 Alpha virt. eigenvalues --    0.66770   0.67882   0.68347   0.68760   0.69813
 Alpha virt. eigenvalues --    0.70160   0.70454   0.70852   0.71420   0.72077
 Alpha virt. eigenvalues --    0.72694   0.72951   0.74108   0.74280   0.74703
 Alpha virt. eigenvalues --    0.75127   0.75576   0.76293   0.76827   0.77245
 Alpha virt. eigenvalues --    0.77605   0.78242   0.78613   0.79071   0.79537
 Alpha virt. eigenvalues --    0.80112   0.80670   0.80892   0.81819   0.82658
 Alpha virt. eigenvalues --    0.83306   0.83535   0.83728   0.83963   0.85354
 Alpha virt. eigenvalues --    0.85602   0.86502   0.86924   0.87946   0.88169
 Alpha virt. eigenvalues --    0.88753   0.88994   0.89845   0.89956   0.90384
 Alpha virt. eigenvalues --    0.91430   0.92687   0.92755   0.93318   0.93476
 Alpha virt. eigenvalues --    0.94032   0.95068   0.95353   0.96204   0.96676
 Alpha virt. eigenvalues --    0.97080   0.97568   0.98117   0.98436   0.99490
 Alpha virt. eigenvalues --    1.00154   1.00211   1.00797   1.01470   1.01731
 Alpha virt. eigenvalues --    1.02515   1.03406   1.03776   1.04328   1.04549
 Alpha virt. eigenvalues --    1.05137   1.06167   1.06600   1.07108   1.07892
 Alpha virt. eigenvalues --    1.08350   1.08984   1.09040   1.10069   1.10759
 Alpha virt. eigenvalues --    1.11301   1.11668   1.12153   1.12200   1.13131
 Alpha virt. eigenvalues --    1.13728   1.14621   1.15188   1.15213   1.16305
 Alpha virt. eigenvalues --    1.16867   1.17342   1.17950   1.18723   1.19760
 Alpha virt. eigenvalues --    1.20182   1.20282   1.20825   1.21459   1.21944
 Alpha virt. eigenvalues --    1.22375   1.23482   1.24069   1.24616   1.25254
 Alpha virt. eigenvalues --    1.25961   1.26473   1.26843   1.27322   1.27643
 Alpha virt. eigenvalues --    1.28444   1.29074   1.29293   1.29886   1.30572
 Alpha virt. eigenvalues --    1.30643   1.31296   1.31871   1.32131   1.32286
 Alpha virt. eigenvalues --    1.32616   1.33048   1.33501   1.34639   1.35303
 Alpha virt. eigenvalues --    1.35561   1.37088   1.38920   1.39145   1.39954
 Alpha virt. eigenvalues --    1.40563   1.41126   1.42361   1.43853   1.44745
 Alpha virt. eigenvalues --    1.45387   1.46376   1.46640   1.46921   1.47600
 Alpha virt. eigenvalues --    1.48195   1.49462   1.50377   1.50765   1.51114
 Alpha virt. eigenvalues --    1.51373   1.52246   1.53014   1.53150   1.54149
 Alpha virt. eigenvalues --    1.54600   1.55219   1.55622   1.56096   1.57238
 Alpha virt. eigenvalues --    1.57879   1.58672   1.58867   1.59188   1.59540
 Alpha virt. eigenvalues --    1.59729   1.60139   1.60499   1.61497   1.62016
 Alpha virt. eigenvalues --    1.62458   1.63133   1.63769   1.64050   1.64490
 Alpha virt. eigenvalues --    1.64763   1.64905   1.65651   1.65981   1.66298
 Alpha virt. eigenvalues --    1.66978   1.67807   1.68227   1.68771   1.69118
 Alpha virt. eigenvalues --    1.69729   1.70174   1.70926   1.71346   1.71489
 Alpha virt. eigenvalues --    1.72463   1.72583   1.73388   1.74174   1.74237
 Alpha virt. eigenvalues --    1.74487   1.74948   1.75690   1.75797   1.76169
 Alpha virt. eigenvalues --    1.76733   1.77972   1.78436   1.78489   1.78817
 Alpha virt. eigenvalues --    1.79650   1.79938   1.80408   1.80992   1.82082
 Alpha virt. eigenvalues --    1.82700   1.83389   1.83569   1.84831   1.85429
 Alpha virt. eigenvalues --    1.85909   1.87170   1.88120   1.88855   1.89556
 Alpha virt. eigenvalues --    1.89971   1.90787   1.91113   1.92020   1.92999
 Alpha virt. eigenvalues --    1.94651   1.94797   1.95012   1.95341   1.96090
 Alpha virt. eigenvalues --    1.97650   1.97918   1.98746   1.99622   1.99762
 Alpha virt. eigenvalues --    2.01213   2.02087   2.02732   2.03113   2.03286
 Alpha virt. eigenvalues --    2.04145   2.05345   2.06084   2.06572   2.07362
 Alpha virt. eigenvalues --    2.07660   2.08090   2.08780   2.10139   2.10302
 Alpha virt. eigenvalues --    2.11208   2.11498   2.11811   2.12622   2.13280
 Alpha virt. eigenvalues --    2.14271   2.14462   2.15175   2.15747   2.16317
 Alpha virt. eigenvalues --    2.17075   2.17528   2.18250   2.19246   2.20062
 Alpha virt. eigenvalues --    2.20245   2.21221   2.22257   2.22609   2.23402
 Alpha virt. eigenvalues --    2.24369   2.24950   2.25178   2.25802   2.26825
 Alpha virt. eigenvalues --    2.27595   2.28185   2.29168   2.30174   2.31173
 Alpha virt. eigenvalues --    2.31463   2.32108   2.32811   2.33391   2.33743
 Alpha virt. eigenvalues --    2.34801   2.35455   2.35917   2.36745   2.37072
 Alpha virt. eigenvalues --    2.37407   2.37852   2.38922   2.39353   2.40208
 Alpha virt. eigenvalues --    2.40752   2.41118   2.42131   2.42448   2.42903
 Alpha virt. eigenvalues --    2.43521   2.43706   2.44709   2.45371   2.45661
 Alpha virt. eigenvalues --    2.46743   2.47297   2.48023   2.48763   2.49134
 Alpha virt. eigenvalues --    2.49780   2.50454   2.50903   2.51074   2.51832
 Alpha virt. eigenvalues --    2.52312   2.53600   2.53843   2.55015   2.55443
 Alpha virt. eigenvalues --    2.56088   2.56338   2.56906   2.57629   2.57772
 Alpha virt. eigenvalues --    2.58428   2.58457   2.58811   2.59494   2.60395
 Alpha virt. eigenvalues --    2.60602   2.61390   2.61954   2.62484   2.63091
 Alpha virt. eigenvalues --    2.63432   2.63697   2.64037   2.64532   2.64763
 Alpha virt. eigenvalues --    2.65173   2.65237   2.66148   2.66361   2.66995
 Alpha virt. eigenvalues --    2.67311   2.67670   2.67884   2.68282   2.68702
 Alpha virt. eigenvalues --    2.69365   2.69891   2.69984   2.70527   2.71150
 Alpha virt. eigenvalues --    2.71798   2.72172   2.72445   2.72852   2.73653
 Alpha virt. eigenvalues --    2.73983   2.74505   2.74760   2.75158   2.75860
 Alpha virt. eigenvalues --    2.76513   2.77355   2.77446   2.78197   2.78916
 Alpha virt. eigenvalues --    2.79079   2.79657   2.80242   2.80720   2.80875
 Alpha virt. eigenvalues --    2.81407   2.81932   2.82200   2.83300   2.83822
 Alpha virt. eigenvalues --    2.84479   2.85034   2.85146   2.85712   2.86420
 Alpha virt. eigenvalues --    2.86603   2.87015   2.87166   2.87820   2.88357
 Alpha virt. eigenvalues --    2.88618   2.88805   2.89377   2.91051   2.91712
 Alpha virt. eigenvalues --    2.92671   2.92889   2.93585   2.94227   2.94712
 Alpha virt. eigenvalues --    2.95555   2.97032   2.97885   2.98239   2.98596
 Alpha virt. eigenvalues --    2.99306   3.00012   3.01214   3.01676   3.02370
 Alpha virt. eigenvalues --    3.02800   3.04071   3.04365   3.05676   3.06050
 Alpha virt. eigenvalues --    3.07040   3.07350   3.07897   3.08784   3.08986
 Alpha virt. eigenvalues --    3.09471   3.09877   3.10250   3.11344   3.11660
 Alpha virt. eigenvalues --    3.12419   3.12752   3.13644   3.14231   3.14875
 Alpha virt. eigenvalues --    3.15362   3.15598   3.15959   3.16428   3.16734
 Alpha virt. eigenvalues --    3.17209   3.17834   3.17910   3.18375   3.18832
 Alpha virt. eigenvalues --    3.19417   3.19607   3.19869   3.21183   3.21346
 Alpha virt. eigenvalues --    3.22075   3.23128   3.23483   3.24233   3.24353
 Alpha virt. eigenvalues --    3.24509   3.25014   3.25389   3.25703   3.26317
 Alpha virt. eigenvalues --    3.27226   3.27625   3.28201   3.28472   3.28624
 Alpha virt. eigenvalues --    3.29488   3.29627   3.29875   3.30795   3.30949
 Alpha virt. eigenvalues --    3.31371   3.31728   3.31943   3.32506   3.32718
 Alpha virt. eigenvalues --    3.33271   3.33832   3.34427   3.35282   3.35674
 Alpha virt. eigenvalues --    3.35934   3.36553   3.36948   3.37573   3.37773
 Alpha virt. eigenvalues --    3.37885   3.38529   3.39407   3.39873   3.41055
 Alpha virt. eigenvalues --    3.41286   3.41676   3.42053   3.43029   3.43525
 Alpha virt. eigenvalues --    3.43940   3.44041   3.44168   3.45671   3.46237
 Alpha virt. eigenvalues --    3.46661   3.46841   3.47274   3.47480   3.47929
 Alpha virt. eigenvalues --    3.48674   3.48769   3.49397   3.49634   3.50381
 Alpha virt. eigenvalues --    3.50771   3.51355   3.51725   3.52161   3.52502
 Alpha virt. eigenvalues --    3.53509   3.53903   3.54362   3.54817   3.55413
 Alpha virt. eigenvalues --    3.55917   3.55947   3.57279   3.57998   3.58869
 Alpha virt. eigenvalues --    3.58890   3.59562   3.60042   3.61472   3.62546
 Alpha virt. eigenvalues --    3.63228   3.63765   3.65144   3.65783   3.66136
 Alpha virt. eigenvalues --    3.66742   3.66895   3.67810   3.69067   3.69780
 Alpha virt. eigenvalues --    3.70431   3.70798   3.71550   3.73005   3.73605
 Alpha virt. eigenvalues --    3.74172   3.74968   3.75824   3.76900   3.77264
 Alpha virt. eigenvalues --    3.78493   3.78761   3.79460   3.81047   3.81405
 Alpha virt. eigenvalues --    3.82778   3.83720   3.85155   3.87332   3.88196
 Alpha virt. eigenvalues --    3.89136   3.89863   3.90373   3.91036   3.92391
 Alpha virt. eigenvalues --    3.92501   3.93525   3.95231   3.96686   3.97286
 Alpha virt. eigenvalues --    3.97822   3.99012   3.99464   3.99604   4.00368
 Alpha virt. eigenvalues --    4.00652   4.02628   4.03637   4.04295   4.04894
 Alpha virt. eigenvalues --    4.05731   4.06073   4.06332   4.07613   4.08153
 Alpha virt. eigenvalues --    4.08699   4.10388   4.10813   4.11815   4.12263
[...]
 ,0.00000775,-0.00000929,-0.00000523,-0.00000473,0.00000104,0.00000376,
 0.00000467,-0.00000668,-0.00000046,-0.00000119,-0.00000018,0.00000070,
 -0.00000020,-0.00001110,-0.00000519,-0.00000811,0.00001019,0.00001971,
 0.00003207,-0.00000491,-0.00000789,0.00000234,0.00000042,0.00000442,0.
 00000067,0.00000097,0.00000284,0.00000060,-0.00000153,-0.00001569,-0.0
 0001019,-0.00000202,-0.00000098,0.00000405,0.00000131,-0.00000739,-0.0
 0000092,-0.00003954,-0.00003069,-0.00002599,0.00001068,-0.00001493,-0.
 00000719,-0.00000136,0.00000644,0.00000528,0.00001723,0.00000550,-0.00
 000757,-0.00001892,0.00002310,-0.00001002,0.00001392,-0.00002115,-0.00
 000594,-0.00001623,0.00000336,-0.00000281,0.00000610,0.00000659,0.0000
 0584,-0.00000059,-0.00000158,-0.00000144,-0.00000294,-0.00000045,-0.00
 000064,-0.00000426,0.00000059,0.00000053,0.00000395,-0.00000214,-0.000
 00033,0.00000698,-0.00002075,-0.00004175,-0.00002580,0.00000033,-0.000
 00196,-0.00000237,-0.00000341,-0.00000271,0.00000349,0.00000171,0.0000
 0182,0.00021455,0.00040665,0.00064756,0.00298820,-0.00171593,-0.002099
 54,-0.00227480,-0.00295015,-0.00060663,-0.25999937,-0.09210474,-0.0994
 0224,-0.01189307,-0.00513331,-0.01007474,0.00084961,-0.00469470,0.0022
 2143,-0.00000186,-0.00000929,0.00004339,0.00001364,-0.00000298,-0.0000
 0512,-0.00001885,-0.00002655,0.00002110,-0.00019331,-0.00019529,0.0000
 1300,-0.00044043,0.00192855,0.00037774,0.27199693,0.00000639,-0.000021
 16,-0.00000341,-0.00000959,0.00008422,0.00000609,-0.00013042,-0.000023
 80,0.00002922,0.00006438,-0.00000175,-0.00000282,0.00018147,0.00002237
 ,-0.00003794,-0.00016287,-0.00000356,0.00004658,0.00008553,-0.00001381
 ,-0.00002281,0.00001713,-0.00007040,-0.00006834,0.00000161,-0.00001171
 ,-0.00000305,0.00049711,-0.00071417,-0.00026483,0.00004870,0.00005088,
 0.00009148,-0.00000582,0.00002948,0.00002416,0.00004990,0.00000155,0.0
 0001172,0.00001507,0.00000215,-0.00000247,-0.00001159,-0.00000051,0.,-
 0.00000075,-0.00000070,0.00000049,-0.00000330,-0.00000205,-0.00000175,
 0.00000235,-0.00000120,0.00000012,-0.00000673,-0.00000012,-0.00000058,
 0.00001127,0.00002043,0.00004215,-0.00000583,-0.00000565,0.00000001,-0
 .00000245,0.00000556,0.00000046,0.00000739,0.00000379,-0.00000089,-0.0
 0000046,-0.00001284,-0.00001070,0.00000134,-0.00001590,0.00000704,0.00
 002893,0.00001183,-0.00000089,-0.00018828,0.00007384,0.00000019,0.0000
 3265,-0.00006525,-0.00004438,0.00001100,0.00003744,0.00003329,-0.00001
 619,-0.00001101,0.00001354,0.00001564,-0.00003777,0.00000134,-0.000007
 19,-0.00001906,-0.00000507,-0.00000513,-0.00000228,-0.00000991,0.00000
 216,0.00000260,0.00000094,-0.00000166,-0.00000114,-0.00000186,-0.00000
 137,-0.00000015,-0.00000080,-0.00000113,0.00000069,-0.00000008,0.00000
 357,-0.00000189,-0.00000243,-0.00000942,-0.00000743,-0.00003774,-0.000
 01879,-0.00000596,-0.00000492,-0.00001122,-0.00000537,-0.00000228,-0.0
 0002949,0.00003320,-0.00004568,0.00026068,-0.00087526,0.00049300,-0.00
 189211,0.00504483,0.00309061,0.00643756,0.00585285,0.00304272,-0.09220
 955,-0.07895747,-0.03370338,-0.01450803,-0.00191761,-0.00858107,-0.004
 44848,0.00348550,0.00425498,0.00000547,0.00000562,-0.00005868,-0.00002
 787,0.00000172,0.00001122,0.00001735,0.00002059,-0.00004689,0.00025088
 ,0.00018062,0.00023379,0.00165327,-0.00249834,-0.00148669,0.10250140,0
 .07291511,0.00000266,0.00000313,0.00000675,0.00002223,-0.00000571,0.00
 000711,-0.00003364,-0.00002232,0.00000975,0.00001608,0.00000375,-0.000
 00750,0.00006780,0.00002066,-0.00000143,-0.00005322,-0.00001588,0.0000
 3524,0.00003945,0.00000524,-0.00001939,0.00009128,0.00006111,0.0000626
 0,-0.00013110,0.00001917,-0.00000323,0.00018381,-0.00028355,-0.0000643
 1,0.00003140,0.00005405,0.00003479,-0.00001224,-0.00001537,-0.00001422
 ,-0.00000530,-0.00000738,-0.00000298,0.00000036,0.00000094,0.00000849,
 -0.00000185,-0.00000372,0.00000124,0.00000117,0.00000091,0.00000198,-0
 .00000129,0.00000052,0.00000029,-0.00000081,-0.00000074,0.00000016,-0.
 00000120,-0.00000184,-0.00000018,-0.00001056,-0.00001538,-0.00001983,0
 .00000035,0.00000101,-0.00000188,-0.00000126,-0.00000111,0.00000131,0.
 00000213,0.00000129,-0.00000153,0.00000394,0.00001376,0.00000465,0.000
 00330,-0.00000174,0.00000014,0.00000898,0.00000677,-0.00000429,-0.0000
 9514,0.00002842,-0.00001635,0.00001838,-0.00004877,-0.00000671,-0.0000
 0766,0.00002587,0.00001982,0.00001820,-0.00005904,0.00000984,-0.000000
 79,-0.00002606,0.00000729,0.00000198,0.00000894,0.00000411,-0.00000245
 ,-0.00000031,0.00000840,0.00000212,0.00000527,-0.00000170,-0.00000003,
 0.00000007,-0.00000106,-0.00000096,0.00000012,-0.00000033,-0.00000065,
 0.00000027,0.00000022,0.00000094,0.00000114,-0.00000106,-0.00000208,0.
 00001359,0.00002249,0.00001351,0.00000152,0.00000596,0.00000179,-0.000
 00170,0.00000540,-0.00000201,0.00002655,-0.00008832,0.00064001,0.00045
 891,-0.00113413,-0.00154485,0.00352143,-0.00451385,-0.02618755,-0.0117
 3968,-0.00625123,-0.09942453,-0.03368445,-0.10310056,0.01560535,0.0061
 2573,0.01135109,0.00158621,0.00387637,-0.00067509,-0.00001243,-0.00002
 045,0.00006739,-0.00001688,-0.00000327,0.00000583,-0.00001885,-0.00001
 911,0.00000919,-0.00129851,-0.00050304,-0.00049445,0.00116007,-0.00101
 638,0.00058285,0.10847499,0.03450207,0.10347179,-0.00000289,0.00000728
 ,-0.00000748,0.00002990,0.00002061,-0.00000131,0.00005761,0.00008031,-
 0.00007357,-0.00001063,-0.00005226,0.00004051,-0.00008146,-0.00004809,
 0.00004327,0.00003858,0.00001902,-0.00000451,-0.00000107,0.00004170,-0
 .00001923,0.00007089,0.00003968,0.00016897,-0.00008578,-0.00002467,0.0
 0000759,0.00052796,0.00067257,-0.00091936,-0.00004736,-0.00018636,-0.0
 0009875,-0.00003791,0.00000051,-0.00004651,0.00011804,-0.00003617,-0.0
 0006378,-0.00002539,0.00000300,0.00004111,0.00000630,-0.00001494,-0.00
 000309,0.00000399,0.00000655,0.00000692,-0.00000276,0.00000403,0.00000
 367,-0.00000931,0.00000142,0.00000201,0.00000039,-0.00001199,-0.000005
 44,-0.00009528,-0.00001806,0.00001688,0.,-0.00000035,0.00000539,-0.000
 00061,-0.00001038,0.00000618,-0.00000267,0.00000010,-0.00000102,0.0000
 0225,0.00001383,0.00000563,0.00001207,0.00001344,-0.00000336,-0.000005
 69,-0.00000308,-0.00000175,0.00003310,-0.00006661,0.00000715,-0.000006
 93,0.00000397,0.00001396,-0.00000982,-0.00002550,-0.00001401,0.0000202
 5,0.00001186,0.00000703,-0.00006023,0.00006262,-0.00000012,0.00003023,
 0.00000252,0.00000087,-0.00001189,0.00000777,0.00001972,0.00000378,0.0
 0001341,0.00000304,0.00000165,0.00000138,-0.00000033,-0.00000105,0.000
 00128,0.00000012,-0.00000237,0.00000033,-0.00000079,-0.00000267,0.0000
 0645,-0.00000044,-0.00001356,0.00000182,-0.00004226,-0.00000655,-0.000
 00132,0.00001167,0.00000404,-0.00000591,0.00000809,-0.00032340,-0.0000
 8831,-0.00004461,-0.00271257,-0.00464807,-0.00287663,-0.00131541,-0.00
 039480,0.00039632,-0.00042348,-0.00513498,0.00149040,0.00879761,-0.004
 19441,0.01964247,-0.06870861,0.00539772,-0.06226811,-0.00147443,0.0064
 6476,-0.02630449,0.00000471,0.00002677,0.00001142,0.00000759,0.0000042
 9,0.00000658,-0.00001473,-0.00007393,-0.00011475,-0.00018203,0.0005104
 7,0.00012212,0.00029652,-0.00030812,0.00099918,-0.00030827,0.00216966,
 0.00014680,0.06618687,0.00000634,-0.00001882,-0.00001444,-0.00003747,0
 .00005799,0.00001264,-0.00017364,-0.00004423,-0.00000987,0.00007095,0.
 00001438,0.00002463,0.00014292,0.00004669,0.00002568,-0.00008869,0.000
 00396,-0.00008140,0.00004978,-0.00005201,0.00002056,0.00001486,-0.0001
 6333,-0.00002600,0.00002895,0.00008608,-0.00002300,0.00008367,0.000149
 39,-0.00051157,-0.00012227,0.00000827,-0.00004863,0.00001776,0.0000338
 8,0.00004211,-0.00001067,-0.00000498,-0.00001482,0.00000625,-0.0000035
 4,0.00000579,-0.00000498,-0.00000092,0.00000378,-0.00000042,-0.0000023
 3,-0.00000074,-0.00000041,-0.00000119,-0.00000094,0.00000153,-0.000001
 89,0.00000047,-0.00000056,0.00000118,0.00000494,0.00000122,-0.00001381
 ,-0.00003444,-0.00000561,-0.00000405,0.00000341,-0.00000796,-0.0000005
 5,0.00000522,0.00000953,0.00000311,0.00000030,0.00000145,-0.00000441,-
 0.00000380,0.00001632,-0.00005218,0.00001834,0.00001861,0.00000164,0.0
 0002728,-0.00005966,0.00009577,-0.00001706,0.00000429,-0.00000381,-0.0
 0000777,-0.00000894,0.00002683,0.00003288,-0.00003141,-0.00002347,0.00
 000878,-0.00005407,0.00001224,-0.00000496,-0.00001351,0.00000143,-0.00
 000571,-0.00000538,-0.00000690,-0.00000070,0.00000016,0.00000244,-0.00
 000390,-0.00000120,0.00000023,-0.00000158,0.00000003,0.00000029,-0.000
 00056,0.00000109,0.00000047,-0.00000031,0.00000080,0.00000141,-0.00000
 265,0.00001510,0.00004743,0.00002668,0.00002839,0.00000192,0.00000819,
 -0.00000471,-0.00000632,-0.00000139,-0.00008072,0.00005828,0.00003310,
 -0.00470232,0.00443610,0.00043793,-0.00040306,-0.00101651,-0.00027928,
 -0.00518415,0.00318895,0.00340373,0.00516107,0.00050362,0.01694391,0.0
 0542021,-0.05917398,0.06426768,-0.00297531,0.00595760,-0.01064155,0.00
 000512,-0.00001622,-0.00002249,0.00000932,-0.00000596,-0.00001885,0.00
 001885,0.00000686,-0.00002244,0.00051686,-0.00074515,-0.00029292,0.000
 19836,-0.00002403,0.00087272,0.00189376,-0.00249178,-0.00154397,-0.002
 13909,0.05160385,0.00000750,-0.00002633,-0.00001079,-0.00002278,0.0001
 1913,0.00001682,-0.00016816,0.00001204,-0.00003067,0.00008136,-0.00003
 482,0.00003733,0.00015498,0.00000018,0.00003899,-0.00011613,0.00000408
 ,-0.00009878,0.00004263,-0.00005764,0.00004045,0.00000257,-0.00017042,
 0.00002636,-0.00006828,0.00000348,-0.00002875,0.00050090,0.00035142,-0
 .00033365,-0.00007985,-0.00008748,-0.00007404,-0.00001935,0.00002085,-
 0.00000907,0.00007632,-0.00002989,-0.00002648,0.00000344,0.00000561,0.
 00002248,-0.00000961,-0.00000947,0.00000002,0.00000193,0.00000304,0.00
 000550,-0.00000609,-0.00000002,-0.00000005,-0.00000192,-0.00000050,0.0
 0000111,-0.00000858,-0.00000832,-0.00000475,-0.00001669,0.00000961,0.0
 0000620,-0.00000805,-0.00000800,0.00000321,-0.00000571,0.00000112,0.00
 000602,0.00000889,0.00000507,-0.00000152,0.00000400,-0.00000379,-0.000
 00810,0.00000869,-0.00007305,0.00001835,0.00001841,-0.00000525,0.00003
 081,-0.00007475,0.00011785,-0.00011370,0.00001801,-0.00002187,-0.00002
 158,-0.00000274,0.00004674,0.00005459,0.00000115,-0.00001549,0.0000092
 1,-0.00006525,0.00003897,-0.00000135,0.00000603,-0.00001171,-0.0000146
 5,-0.00001742,0.00000106,0.00000609,0.00000589,0.00001248,0.00000148,-
 0.00000085,-0.00000031,-0.00000271,-0.00000254,0.00000047,-0.00000101,
 -0.00000328,0.00000099,-0.00000028,0.00000278,0.00000167,-0.00000277,-
 0.00002773,-0.00000740,-0.00002775,-0.00000686,-0.00000093,0.00000615,
 -0.00000135,-0.00000665,0.00000629,-0.00019210,0.00001939,0.00000190,-
 0.00303410,0.00033490,0.00161376,0.00028229,-0.00039523,0.00069129,0.0
 0209061,0.00367188,0.00064194,-0.00606446,0.00221697,-0.01186814,-0.06
 229401,0.06420375,-0.31278853,-0.00087965,0.00378304,-0.00773014,0.000
 00881,-0.00000368,0.00000073,0.00000574,0.00000226,-0.00000517,0.00000
 383,-0.00002646,-0.00006366,0.00013583,-0.00026824,-0.00018077,-0.0003
 6945,0.00010333,-0.00068189,0.00093161,-0.00110168,0.00030491,0.068509
 71,-0.07143518,0.33022558,-0.00003432,0.00004880,0.00000746,-0.0001949
 8,-0.00091482,0.00002662,0.00091732,0.00032224,0.00001521,-0.00029808,
 -0.00002693,-0.00002280,-0.00049783,-0.00035734,-0.00014178,0.00002841
 ,0.00005323,0.00013846,-0.00001316,0.00005521,0.00001559,-0.00316579,-
 0.00423933,-0.00302351,0.00020432,0.00060885,0.00041074,-0.00023390,0.
 00196360,0.00024925,-0.00028111,-0.00024732,-0.00028772,0.00011913,0.0
 0001540,0.00001555,-0.00063441,0.00014797,-0.00016031,-0.00011475,-0.0
 0007547,0.00011071,0.00009633,0.00002382,0.00002662,0.00000809,0.00000
 310,-0.00001307,0.00002804,0.00000956,0.00001193,-0.00000758,0.0000055
 0,-0.00000476,0.00003345,0.00000055,0.00001904,-0.00121339,-0.00028005
 ,0.00020432,0.00001996,0.00002888,0.00000838,0.00002172,-0.00003060,-0
 .00000256,-0.00003784,-0.00002203,-0.00000897,0.00002412,0.00012746,0.
 00009734,-0.00005274,0.00007293,-0.00000696,-0.00001533,-0.00000590,-0
 .00003765,-0.00002500,-0.00008047,0.00000974,0.00000326,-0.00002133,-0
 .00000847,0.00000653,0.00000316,-0.00001750,0.00003133,-0.00008643,0.0
 0004923,-0.00010001,0.00009694,0.00000568,0.00006479,0.00018551,0.0000
 3329,0.00000714,-0.00004593,0.00005583,-0.00001041,-0.00002588,-0.0000
 2280,0.00001043,0.00001045,0.00000819,0.00001013,0.00000103,0.00000348
 ,0.00001305,-0.00000292,-0.00000077,-0.00002176,0.00001431,-0.00000250
 ,-0.00301360,0.00054030,0.00172795,0.00018519,-0.00001447,0.00002860,-
 0.00005004,-0.00004613,0.00004757,0.00021784,-0.00002044,0.00019897,0.
 00923273,0.00445455,-0.00454016,0.00202306,-0.00220573,-0.00318526,-0.
 00022770,0.00067098,-0.00074465,-0.00164297,-0.00415874,-0.00423130,-0
 .01170706,-0.01555046,0.01557893,-0.15689524,-0.10738105,0.09650921,-0
 .00001103,0.00000780,0.00007558,0.00003790,0.00001599,0.00000795,-0.00
 003415,0.00001763,0.00002557,0.00035949,0.00034729,-0.00047011,-0.0002
 8412,0.00047889,0.00025664,-0.00059662,-0.00066414,0.00072253,-0.00026
 759,0.00237265,0.00065382,0.16797877,-0.00003309,0.00002970,-0.0000408
 7,-0.00040099,-0.00096641,-0.00006455,0.00005915,-0.00039213,-0.000072
 07,-0.00007117,0.00016644,-0.00003001,-0.00018811,0.00029399,0.0003226
 6,0.00030075,-0.00001635,-0.00007437,-0.00001127,0.00000320,-0.0000059
 2,-0.00369436,-0.00489768,-0.00338647,-0.00023988,0.00065631,0.0005317
 3,0.00212288,-0.00218517,-0.00150447,0.00022681,0.00012781,0.00051832,
 0.00016563,0.00028576,0.00029254,-0.00015039,0.00024237,0.00044067,0.0
 0014397,-0.00005850,-0.00012894,-0.00006055,0.00001414,0.00003744,-0.0
 0002496,-0.00002718,-0.00002307,-0.00000357,-0.00002599,-0.00002325,0.
 00004632,-0.00000368,-0.00000211,-0.00003624,0.00003555,0.00000638,0.0
 0002426,0.00014131,0.00047841,0.00002000,0.00002165,0.00000730,-0.0000
 2932,-0.00003537,0.00002545,0.00002301,0.00000640,0.00001392,0.0000372
 6,0.00013771,0.00010391,0.00000558,-0.00001589,0.00000376,-0.00004448,
 0.00001266,0.00001438,-0.00002003,0.00004649,0.00001624,-0.00001711,-0
 .00000905,0.00000887,0.00000301,-0.00000705,0.00001159,0.00002327,-0.0
 0001254,-0.00001495,0.00010484,-0.00013229,-0.00006181,-0.00005274,-0.
 00031989,-0.00002578,-0.00008216,-0.00008371,-0.00011774,-0.00001660,-
 0.00000701,-0.00004099,-0.00001059,-0.00000179,-0.00000864,0.00000077,
 -0.00000373,-0.00000422,0.00000106,0.00000029,0.00000199,0.00002201,-0
 .00002548,-0.00001587,0.00029104,0.00069095,-0.00055981,-0.00017326,-0
 .00014222,-0.00006352,-0.00038898,-0.00016363,-0.00002113,-0.00049045,
 -0.00003984,-0.00021533,-0.00425531,0.00037439,0.00214570,-0.00155802,
 0.00500033,0.00200528,0.00036458,-0.00043484,-0.00065391,-0.00364610,0
 .00482299,0.00076797,-0.00475984,-0.00080757,0.00561657,-0.10927136,-0
 .14501132,0.10602924,-0.00000905,-0.00000639,-0.00001667,-0.00000624,0
 .00002338,-0.00002375,-0.00000604,-0.00004814,-0.00014212,-0.00019955,
 0.00007979,0.00000296,0.00040591,-0.00074352,-0.00028034,-0.00011594,-
 0.00008977,0.00025237,0.00187629,-0.00246991,-0.00128157,0.12379933,0.
 14597042,-0.00001782,0.00019467,0.00014040,0.00034929,-0.00095499,0.00
 013134,0.00026432,-0.00051334,0.00006268,-0.00020459,0.00027772,-0.000
 13787,-0.00032631,0.00018787,0.00021738,0.00036387,-0.00004095,-0.0000
 2932,-0.00001739,0.00000535,-0.00000942,-0.00050507,-0.00073752,0.0000
 5642,-0.00114405,0.00077763,-0.00028718,0.00214410,-0.00064854,0.00017
 662,0.00007550,0.00006105,0.00019467,-0.00001512,-0.00000195,-0.000130
 70,-0.00102089,0.00003689,0.00007469,0.00000608,-0.00000603,-0.0001129
 5,0.00001075,0.00003374,0.00004964,-0.00001020,-0.00002483,-0.00001769
 ,0.00001930,-0.00000835,-0.00000762,0.00002231,-0.00000485,0.00000631,
 0.00002329,0.00001583,0.00001671,0.00061382,0.00001183,-0.00031210,0.0
 0005269,0.00006918,-0.00006110,-0.00000202,-0.00000388,-0.00002365,-0.
 00000644,-0.00001146,-0.00000310,0.00003808,0.00024017,0.00013609,-0.0
 0002632,-0.00000613,-0.00000593,-0.00005801,0.00001639,0.00000426,0.00
 000458,0.00004050,-0.00002641,-0.00001802,-0.00001906,0.00001362,0.000
 00195,0.00001219,0.00002009,0.00005237,-0.00008244,0.00003536,0.000020
 89,-0.00005000,0.00000198,-0.00008212,0.00015425,-0.00002241,0.0000228
 5,-0.00004278,0.00002457,-0.00001974,-0.00001246,-0.00004851,-0.000001
 05,0.00000453,0.00000058,0.00000742,-0.00000031,-0.00000085,0.00000878
 ,-0.00000123,-0.00000010,0.00000034,0.00000058,-0.00000028,0.00205181,
 -0.00030028,0.00013461,0.00010644,0.00002803,-0.00005929,0.00003719,0.
 00005286,0.00002246,-0.00020164,-0.00004270,-0.00009148,0.01841924,0.0
 1715185,-0.01167804,-0.00313337,0.00253072,-0.00474694,-0.00091361,-0.
 00058822,-0.00076990,-0.00374013,0.00051489,0.00073739,-0.00928849,-0.
 00806207,0.01105538,0.09453800,0.10139371,-0.14984896,0.00000761,-0.00
 000199,0.00012047,0.00001044,0.00003126,-0.00004641,-0.00004115,-0.000
 04722,-0.00008246,0.00104984,0.00091723,-0.00072296,0.00026400,-0.0002
 5491,-0.00004343,-0.00054211,-0.00038320,0.00037455,0.00117089,-0.0011
 5783,0.00031319,-0.10042238,-0.11075141,0.15520560\\0.00000569,-0.0000
 0461,0.00000048,0.00000089,0.00000335,-0.00000242,0.00001664,0.0000139
 5,-0.00000485,0.00000265,-0.00000585,0.00000358,-0.00001395,-0.0000113
 3,0.00000797,0.00000892,0.00000322,0.00000574,-0.00000249,-0.00000277,
 -0.00000421,-0.00000704,-0.00000220,0.00000435,-0.00001545,-0.00001611
 ,-0.00001330,0.00000951,0.00002839,-0.00000123,0.00000402,-0.00000473,
 -0.00000494,0.00000737,-0.00000952,0.00000486,-0.00000540,0.00002300,0
 .00001198,0.00000159,-0.00001755,-0.00000339,0.00000531,0.00000641,0.0
 0000300,-0.00000267,-0.00000114,-0.00000135,0.00000176,-0.00000629,-0.
 00000440,0.00000485,0.00000268,0.00000256,-0.00000892,0.00000123,-0.00
 000400,0.00000198,-0.00000914,-0.00000004,-0.00000176,-0.00000060,0.00
 000327,0.00000149,-0.00000227,0.,0.00000067,0.00000058,-0.00000127,0.0
 0000082,0.00000009,-0.00000017,0.00000104,0.00000037,0.00000012,-0.000
 00218,0.00000093,-0.00000022,-0.00000095,0.00000245,0.00000404,0.00000
 023,0.00000459,0.00000403,0.00000454,-0.00000026,0.00000021,-0.0000013
 5,-0.00000061,-0.00000113,-0.00000210,-0.00000301,-0.00000102,0.000000
 31,0.00000237,0.00000020,0.00000060,0.00000051,-0.00000337,0.00000217,
 0.00000008,-0.00000323,0.00000124,-0.00000197,-0.00000077,0.00000050,-
 0.00000208,-0.00000169,-0.00000115,-0.00000254,-0.00000249,-0.00000207
 ,0.00000006,-0.00000445,0.00000003,0.00000125,0.00000098,0.00000157,0.
 00000178,-0.00000044,-0.00000113,0.00000194,0.00000076,-0.00000182,-0.
 00000391,0.00000309,-0.00000915,-0.00001042,0.00000209,-0.00000115,0.0
 0000503,-0.00000177,-0.00000267,0.00000126,-0.00000023,-0.00000023,-0.
 00000019,0.00000171,-0.00000070,0.00000151,-0.00000083,0.00000014,0.00
 000209,0.00000165,0.00000146,0.00000077,-0.00000349,0.00000032,0.00000
 081,0.00000018,0.00000043,0.00000017,-0.00000020,-0.00000002,0.0000013
 9,0.00000152,-0.00000055,0.00000074,0.00000046,-0.00000150,0.00000212,
 0.00000073,-0.00000117,0.00000166,0.00000045,-0.00000115,0.00000233,0.
 00000090\\\@
 The archive entry for this job was punched.


 I MET A TRAVELLER FROM AN ANTIQUE LAND
 WHO SAID... TWO VAST AND TRUNKLESS LEGS OF STONE
 STAND IN THE DESERT..... NEAR THEM,  ON THE SAND,
 HALF SUNK,  A SHATTERED VISAGE LIES,  WHOSE FROWN,
 AND WRINKLED LIP,  AND SNEER OF COLD COMMAND
 TELL THAT ITS SCULPTOR WELL THOSE PASSIONS READ
 WHICH YET SURVIVE,  STAMPED ON THESE LIFELESS THINGS
 THE HAND THAT MOCKED THEM,  AND THE HEART THAT FED-
 AND ON THE PEDESTAL THESE WORDS APPEAR 
 MY NAME IS OZYMANDIAS, KING OF KINGS--   
 LOOK ON MY WORKS YE MIGHTY AND DESPAIR. 
 NOTHING BESIDE REMAINS,  ROUND THE DECAY 
 OF THAT COLOSSAL WRECK,  BOUNDLESS AND BARE
 THE LONE AND LEVEL SANDS STRETCH FAR AWAY.
                                    SHELLEY
 Job cpu time:       7 days  0 hours 35 minutes 19.0 seconds.
 Elapsed time:       0 days  8 hours 26 minutes  5.5 seconds.
 File lengths (MBytes):  RWF=   4194 Int=      0 D2E=      0 Chk=     83 Scr=      1
 Normal termination of Gaussian 16 at Wed Jan  8 17:12:43 2025.
