 Entering Gaussian System, Link 0=g16
 Input=gjfs/data_set_12-nBA_dormant-27.gjf
 Output=gjfs/data_set_12-nBA_dormant-27.log
 Initial command:
 /usr/local/intel/g16/l1.exe "/scr/Gau-269329.inp" -scrdir="/scr/"
 Entering Link 1 = /usr/local/intel/g16/l1.exe PID=    269331.
  
 Copyright (c) 1988-2019, Gaussian, Inc.  All Rights Reserved.
  
 This is part of the Gaussian(R) 16 program.  It is based on
 the Gaussian(R) 09 system (copyright 2009, Gaussian, Inc.),
 the Gaussian(R) 03 system (copyright 2003, Gaussian, Inc.),
 the Gaussian(R) 98 system (copyright 1998, Gaussian, Inc.),
 the Gaussian(R) 94 system (copyright 1995, Gaussian, Inc.),
 the Gaussian 92(TM) system (copyright 1992, Gaussian, Inc.),
 the Gaussian 90(TM) system (copyright 1990, Gaussian, Inc.),
 the Gaussian 88(TM) system (copyright 1988, Gaussian, Inc.),
 the Gaussian 86(TM) system (copyright 1986, Carnegie Mellon
 University), and the Gaussian 82(TM) system (copyright 1983,
 Carnegie Mellon University). Gaussian is a federally registered
 trademark of Gaussian, Inc.
  
 This software contains proprietary and confidential information,
 including trade secrets, belonging to Gaussian, Inc.
  
 This software is provided under written license and may be
 used, copied, transmitted, or stored only in accord with that
 written license.
  
 The following legend is applicable only to US Government
 contracts under FAR:
  
                    RESTRICTED RIGHTS LEGEND
  
 Use, reproduction and disclosure by the US Government is
 subject to restrictions as set forth in subparagraphs (a)
 and (c) of the Commercial Computer Software - Restricted
 Rights clause in FAR 52.227-19.
  
 Gaussian, Inc.
 340 Quinnipiac St., Bldg. 40, Wallingford CT 06492
  
  
 ---------------------------------------------------------------
 Warning -- This program may not be used in any manner that
 competes with the business of Gaussian, Inc. or will provide
 assistance to any competitor of Gaussian, Inc.  The licensee
 of this program is prohibited from giving any competitor of
 Gaussian, Inc. access to this program.  By using this program,
 the user acknowledges that Gaussian, Inc. is engaged in the
 business of creating and licensing software in the field of
 computational chemistry and represents and warrants to the
 licensee that it is not a competitor of Gaussian, Inc. and that
 it will not use this program in any manner prohibited above.
 ---------------------------------------------------------------
  

 Cite this work as:
 Gaussian 16, Revision C.01,
 M. J. Frisch, G. W. Trucks, H. B. Schlegel, G. E. Scuseria, 
 M. A. Robb, J. R. Cheeseman, G. Scalmani, V. Barone, 
 G. A. Petersson, H. Nakatsuji, X. Li, M. Caricato, A. V. Marenich, 
 J. Bloino, B. G. Janesko, R. Gomperts, B. Mennucci, H. P. Hratchian, 
 J. V. Ortiz, A. F. Izmaylov, J. L. Sonnenberg, D. Williams-Young, 
 F. Ding, F. Lipparini, F. Egidi, J. Goings, B. Peng, A. Petrone, 
 T. Henderson, D. Ranasinghe, V. G. Zakrzewski, J. Gao, N. Rega, 
 G. Zheng, W. Liang, M. Hada, M. Ehara, K. Toyota, R. Fukuda, 
 J. Hasegawa, M. Ishida, T. Nakajima, Y. Honda, O. Kitao, H. Nakai, 
 T. Vreven, K. Throssell, J. A. Montgomery, Jr., J. E. Peralta, 
 F. Ogliaro, M. J. Bearpark, J. J. Heyd, E. N. Brothers, K. N. Kudin, 
 V. N. Staroverov, T. A. Keith, R. Kobayashi, J. Normand, 
 K. Raghavachari, A. P. Rendell, J. C. Burant, S. S. Iyengar, 
 J. Tomasi, M. Cossi, J. M. Millam, M. Klene, C. Adamo, R. Cammi, 
 J. W. Ochterski, R. L. Martin, K. Morokuma, O. Farkas, 
 J. B. Foresman, and D. J. Fox, Gaussian, Inc., Wallingford CT, 2019.
 
 ******************************************
 Gaussian 16:  ES64L-G16RevC.01  3-Jul-2019
                 7-Jan-2025 
 ******************************************
 %nprocshared=20
 Will use up to   20 processors via shared memory.
 %mem=30GB
 %chk=outputs/data_set_12-nBA_dormant-27.chk
 ----------------------------------
 #p M062X/DEF2TZVP opt freq pop=NBO
 ----------------------------------
 1/18=20,19=15,26=3,38=1/1,3;
 2/9=110,12=2,17=6,18=5,40=1/2;
 3/5=44,7=101,11=2,25=1,30=1,71=1,74=-55/1,2,3;
 4//1;
 5/5=2,38=5/2;
 6/7=2,8=2,9=2,10=2,28=1,40=1/1,7;
 7//1,2,3,16;
 1/18=20,19=15,26=3/3(2);
 2/9=110/2;
 99//99;
 2/9=110/2;
 3/5=44,7=101,11=2,25=1,30=1,71=1,74=-55/1,2,3;
 4/5=5,16=3,69=1/1;
 5/5=2,38=5/2;
 7//1,2,3,16;
 1/18=20,19=15,26=3/3(-5);
 2/9=110/2;
 6/7=2,8=2,9=2,10=2,19=2,28=1,40=1/1,7;
 99/9=1/99;
 Leave Link    1 at Tue Jan  7 18:20:29 2025, MaxMem=  4026531840 cpu:               1.1 elap:               0.1
 (Enter /usr/local/intel/g16/l101.exe)
 --------------------------
 data_set_12-nBA_dormant-27
 --------------------------
 Symbolic Z-matrix:
 Charge =  0 Multiplicity = 1
 C                    -0.10011   3.02804  -1.37813 
 C                     0.56249   1.77425  -0.81411 
 C                     1.87306   2.11853  -0.11235 
 O                     2.01031   3.01651   0.72396 
 O                     2.90164   1.31653  -0.51914 
 C                     4.21105   1.53015   0.12348 
 C                     5.17608   0.52461  -0.48395 
 O                    -0.17706   1.13173   0.27894 
 N                    -1.60758   0.94404   0.06484 
 C                    -2.28833   1.48573   1.30998 
 C                    -1.87339   0.72855   2.59076 
 C                    -3.81518   1.40338   1.11804 
 C                    -1.8963    2.96847   1.44434 
 C                    -1.84048  -0.48163  -0.25945 
 C                    -2.3052   -0.72593  -1.74509 
 C                    -1.33658  -0.16009  -2.80254 
 C                    -3.66385  -0.00778  -1.91375 
 C                    -2.51777  -2.23586  -2.00812 
 P                    -0.42273  -1.64578   0.25902 
 O                    -0.87775  -3.15836   0.42164 
 O                     0.75822  -1.38397  -0.9233 
 O                     0.35813  -1.15184   1.68974 
 C                     2.09043  -1.97933  -0.80672 
 C                     2.79372  -1.72966  -2.13116 
 C                     0.40696  -2.04705   2.85261 
 C                     1.64972  -2.93013   2.80329 
 H                     0.41575   3.33778  -2.29312 
 H                    -0.06215   3.84545  -0.65494 
 H                    -1.14443   2.81228  -1.61519 
 H                     0.7565    1.02517  -1.58339 
 H                     4.08804   1.39201   1.2016 
 H                     4.52007   2.56407  -0.05746 
 H                     4.84765  -0.49878  -0.28305 
 H                     6.17187   0.66104  -0.04995 
 H                     5.24611   0.65966  -1.56676 
 H                    -0.7873    0.73734   2.6982 
 H                    -2.21175  -0.31552   2.57724 
 H                    -2.33009   1.21235   3.46108 
 H                    -4.18114   0.37445   1.04075 
 H                    -4.12966   1.95335   0.22717 
 H                    -4.29789   1.85585   1.99054 
 H                    -2.19061   3.52529   0.54919 
 H                    -0.8201    3.07911   1.59454 
 H                    -2.41603   3.40188   2.30574 
 H                    -2.65724  -0.86439   0.36703 
 H                    -1.72825  -0.39545  -3.79932 
 H                    -0.34032  -0.59805  -2.70892 
 H                    -1.26498   0.92797  -2.72297 
 H                    -4.42432  -0.41197  -1.23481 
 H                    -4.02201  -0.14627  -2.94014 
 H                    -3.55895   1.06481  -1.72795 
 H                    -1.57291  -2.78303  -2.06669 
 H                    -3.03984  -2.35499  -2.96434 
 H                    -3.11881  -2.70836  -1.22381 
 H                     1.98734  -3.05078  -0.59626 
 H                     2.60845  -1.48974   0.02434 
 H                     2.23801  -2.1931   -2.9512 
 H                     3.80398  -2.15428  -2.10691 
 H                     2.86954  -0.65379  -2.30855 
 H                    -0.49925  -2.66091   2.88709 
 H                     0.42551  -1.36688   3.70717 
 H                     2.54816  -2.31692   2.68098 
 H                     1.57747  -3.6379    1.97199 
 H                     1.74154  -3.50052   3.73458 
 
 ITRead=  0  0  0  0  0  0  0  0  0  0  0  0  0  0  0  0  0  0  0  0
 ITRead=  0  0  0  0  0  0  0  0  0  0  0  0  0  0  0  0  0  0  0  0
 ITRead=  0  0  0  0  0  0  0  0  0  0  0  0  0  0  0  0  0  0  0  0
 ITRead=  0  0  0  0
 MicOpt= -1 -1 -1 -1 -1 -1 -1 -1 -1 -1 -1 -1 -1 -1 -1 -1 -1 -1 -1 -1
 MicOpt= -1 -1 -1 -1 -1 -1 -1 -1 -1 -1 -1 -1 -1 -1 -1 -1 -1 -1 -1 -1
 MicOpt= -1 -1 -1 -1 -1 -1 -1 -1 -1 -1 -1 -1 -1 -1 -1 -1 -1 -1 -1 -1
 MicOpt= -1 -1 -1 -1
 NAtoms=     64 NQM=       64 NQMF=       0 NMMI=      0 NMMIF=      0
                NMic=       0 NMicF=      0.
                    Isotopes and Nuclear Properties:
 (Nuclear quadrupole moments (NQMom) in fm**2, nuclear magnetic moments (NMagM)
  in nuclear magnetons)

  Atom         1           2           3           4           5           6           7           8           9          10
 IAtWgt=          12          12          12          16          16          12          12          16          14          12
 AtmWgt=  12.0000000  12.0000000  12.0000000  15.9949146  15.9949146  12.0000000  12.0000000  15.9949146  14.0030740  12.0000000
 NucSpn=           0           0           0           0           0           0           0           0           2           0
 AtZEff=  -0.0000000  -0.0000000  -0.0000000  -0.0000000  -0.0000000  -0.0000000  -0.0000000  -0.0000000  -0.0000000  -0.0000000
 NQMom=    0.0000000   0.0000000   0.0000000   0.0000000   0.0000000   0.0000000   0.0000000   0.0000000   2.0440000   0.0000000
 NMagM=    0.0000000   0.0000000   0.0000000   0.0000000   0.0000000   0.0000000   0.0000000   0.0000000   0.4037610   0.0000000
 AtZNuc=   6.0000000   6.0000000   6.0000000   8.0000000   8.0000000   6.0000000   6.0000000   8.0000000   7.0000000   6.0000000

  Atom        11          12          13          14          15          16          17          18          19          20
 IAtWgt=          12          12          12          12          12          12          12          12          31          16
 AtmWgt=  12.0000000  12.0000000  12.0000000  12.0000000  12.0000000  12.0000000  12.0000000  12.0000000  30.9737634  15.9949146
 NucSpn=           0           0           0           0           0           0           0           0           1           0
 AtZEff=  -0.0000000  -0.0000000  -0.0000000  -0.0000000  -0.0000000  -0.0000000  -0.0000000  -0.0000000  -0.0000000  -0.0000000
 NQMom=    0.0000000   0.0000000   0.0000000   0.0000000   0.0000000   0.0000000   0.0000000   0.0000000   0.0000000   0.0000000
 NMagM=    0.0000000   0.0000000   0.0000000   0.0000000   0.0000000   0.0000000   0.0000000   0.0000000   1.1316000   0.0000000
 AtZNuc=   6.0000000   6.0000000   6.0000000   6.0000000   6.0000000   6.0000000   6.0000000   6.0000000  15.0000000   8.0000000

  Atom        21          22          23          24          25          26          27          28          29          30
 IAtWgt=          16          16          12          12          12          12           1           1           1           1
 AtmWgt=  15.9949146  15.9949146  12.0000000  12.0000000  12.0000000  12.0000000   1.0078250   1.0078250   1.0078250   1.0078250
 NucSpn=           0           0           0           0           0           0           1           1           1           1
 AtZEff=  -0.0000000  -0.0000000  -0.0000000  -0.0000000  -0.0000000  -0.0000000  -0.0000000  -0.0000000  -0.0000000  -0.0000000
 NQMom=    0.0000000   0.0000000   0.0000000   0.0000000   0.0000000   0.0000000   0.0000000   0.0000000   0.0000000   0.0000000
 NMagM=    0.0000000   0.0000000   0.0000000   0.0000000   0.0000000   0.0000000   2.7928460   2.7928460   2.7928460   2.7928460
 AtZNuc=   8.0000000   8.0000000   6.0000000   6.0000000   6.0000000   6.0000000   1.0000000   1.0000000   1.0000000   1.0000000

  Atom        31          32          33          34          35          36          37          38          39          40
 IAtWgt=           1           1           1           1           1           1           1           1           1           1
 AtmWgt=   1.0078250   1.0078250   1.0078250   1.0078250   1.0078250   1.0078250   1.0078250   1.0078250   1.0078250   1.0078250
 NucSpn=           1           1           1           1           1           1           1           1           1           1
 AtZEff=  -0.0000000  -0.0000000  -0.0000000  -0.0000000  -0.0000000  -0.0000000  -0.0000000  -0.0000000  -0.0000000  -0.0000000
 NQMom=    0.0000000   0.0000000   0.0000000   0.0000000   0.0000000   0.0000000   0.0000000   0.0000000   0.0000000   0.0000000
 NMagM=    2.7928460   2.7928460   2.7928460   2.7928460   2.7928460   2.7928460   2.7928460   2.7928460   2.7928460   2.7928460
 AtZNuc=   1.0000000   1.0000000   1.0000000   1.0000000   1.0000000   1.0000000   1.0000000   1.0000000   1.0000000   1.0000000

  Atom        41          42          43          44          45          46          47          48          49          50
 IAtWgt=           1           1           1           1           1           1           1           1           1           1
 AtmWgt=   1.0078250   1.0078250   1.0078250   1.0078250   1.0078250   1.0078250   1.0078250   1.0078250   1.0078250   1.0078250
 NucSpn=           1           1           1           1           1           1           1           1           1           1
 AtZEff=  -0.0000000  -0.0000000  -0.0000000  -0.0000000  -0.0000000  -0.0000000  -0.0000000  -0.0000000  -0.0000000  -0.0000000
 NQMom=    0.0000000   0.0000000   0.0000000   0.0000000   0.0000000   0.0000000   0.0000000   0.0000000   0.0000000   0.0000000
 NMagM=    2.7928460   2.7928460   2.7928460   2.7928460   2.7928460   2.7928460   2.7928460   2.7928460   2.7928460   2.7928460
 AtZNuc=   1.0000000   1.0000000   1.0000000   1.0000000   1.0000000   1.0000000   1.0000000   1.0000000   1.0000000   1.0000000

  Atom        51          52          53          54          55          56          57          58          59          60
 IAtWgt=           1           1           1           1           1           1           1           1           1           1
 AtmWgt=   1.0078250   1.0078250   1.0078250   1.0078250   1.0078250   1.0078250   1.0078250   1.0078250   1.0078250   1.0078250
 NucSpn=           1           1           1           1           1           1           1           1           1           1
 AtZEff=  -0.0000000  -0.0000000  -0.0000000  -0.0000000  -0.0000000  -0.0000000  -0.0000000  -0.0000000  -0.0000000  -0.0000000
 NQMom=    0.0000000   0.0000000   0.0000000   0.0000000   0.0000000   0.0000000   0.0000000   0.0000000   0.0000000   0.0000000
 NMagM=    2.7928460   2.7928460   2.7928460   2.7928460   2.7928460   2.7928460   2.7928460   2.7928460   2.7928460   2.7928460
 AtZNuc=   1.0000000   1.0000000   1.0000000   1.0000000   1.0000000   1.0000000   1.0000000   1.0000000   1.0000000   1.0000000

  Atom        61          62          63          64
 IAtWgt=           1           1           1           1
 AtmWgt=   1.0078250   1.0078250   1.0078250   1.0078250
 NucSpn=           1           1           1           1
 AtZEff=  -0.0000000  -0.0000000  -0.0000000  -0.0000000
 NQMom=    0.0000000   0.0000000   0.0000000   0.0000000
 NMagM=    2.7928460   2.7928460   2.7928460   2.7928460
 AtZNuc=   1.0000000   1.0000000   1.0000000   1.0000000
 Leave Link  101 at Tue Jan  7 18:20:30 2025, MaxMem=  4026531840 cpu:              23.9 elap:               1.2
 (Enter /usr/local/intel/g16/l103.exe)

 GradGradGradGradGradGradGradGradGradGradGradGradGradGradGradGradGradGrad
 Berny optimization.
 Initialization pass.
                           ----------------------------
                           !    Initial Parameters    !
                           ! (Angstroms and Degrees)  !
 --------------------------                            --------------------------
 ! Name  Definition              Value          Derivative Info.                !
 --------------------------------------------------------------------------------
 ! R1    R(1,2)                  1.5261         estimate D2E/DX2                !
 ! R2    R(1,27)                 1.0951         estimate D2E/DX2                !
 ! R3    R(1,28)                 1.0921         estimate D2E/DX2                !
 ! R4    R(1,29)                 1.0924         estimate D2E/DX2                !
 ! R5    R(2,3)                  1.526          estimate D2E/DX2                !
 ! R6    R(2,8)                  1.4678         estimate D2E/DX2                !
 ! R7    R(2,30)                 1.0911         estimate D2E/DX2                !
 ! R8    R(3,4)                  1.2348         estimate D2E/DX2                !
 ! R9    R(3,5)                  1.3663         estimate D2E/DX2                !
 ! R10   R(5,6)                  1.4742         estimate D2E/DX2                !
 ! R11   R(6,7)                  1.5203         estimate D2E/DX2                !
 ! R12   R(6,31)                 1.0939         estimate D2E/DX2                !
 ! R13   R(6,32)                 1.0942         estimate D2E/DX2                !
 ! R14   R(7,33)                 1.0934         estimate D2E/DX2                !
 ! R15   R(7,34)                 1.0948         estimate D2E/DX2                !
 ! R16   R(7,35)                 1.0934         estimate D2E/DX2                !
 ! R17   R(8,9)                  1.4586         estimate D2E/DX2                !
 ! R18   R(9,10)                 1.519          estimate D2E/DX2                !
 ! R19   R(9,14)                 1.4805         estimate D2E/DX2                !
 ! R20   R(10,11)                1.5446         estimate D2E/DX2                !
 ! R21   R(10,12)                1.5411         estimate D2E/DX2                !
 ! R22   R(10,13)                1.5396         estimate D2E/DX2                !
 ! R23   R(11,36)                1.0914         estimate D2E/DX2                !
 ! R24   R(11,37)                1.0976         estimate D2E/DX2                !
 ! R25   R(11,38)                1.0955         estimate D2E/DX2                !
 ! R26   R(12,39)                1.0948         estimate D2E/DX2                !
 ! R27   R(12,40)                1.0932         estimate D2E/DX2                !
 ! R28   R(12,41)                1.095          estimate D2E/DX2                !
 ! R29   R(13,42)                1.0945         estimate D2E/DX2                !
 ! R30   R(13,43)                1.0923         estimate D2E/DX2                !
 ! R31   R(13,44)                1.0954         estimate D2E/DX2                !
 ! R32   R(14,15)                1.5757         estimate D2E/DX2                !
 ! R33   R(14,19)                1.9063         estimate D2E/DX2                !
 ! R34   R(14,45)                1.0982         estimate D2E/DX2                !
 ! R35   R(15,16)                1.5416         estimate D2E/DX2                !
 ! R36   R(15,17)                1.546          estimate D2E/DX2                !
 ! R37   R(15,18)                1.5473         estimate D2E/DX2                !
 ! R38   R(16,46)                1.0965         estimate D2E/DX2                !
 ! R39   R(16,47)                1.0923         estimate D2E/DX2                !
 ! R40   R(16,48)                1.0933         estimate D2E/DX2                !
 ! R41   R(17,49)                1.0967         estimate D2E/DX2                !
 ! R42   R(17,50)                1.0959         estimate D2E/DX2                !
 ! R43   R(17,51)                1.0936         estimate D2E/DX2                !
 ! R44   R(18,52)                1.0934         estimate D2E/DX2                !
 ! R45   R(18,53)                1.0959         estimate D2E/DX2                !
 ! R46   R(18,54)                1.0953         estimate D2E/DX2                !
 ! R47   R(19,20)                1.5879         estimate D2E/DX2                !
 ! R48   R(19,21)                1.6915         estimate D2E/DX2                !
 ! R49   R(19,22)                1.7031         estimate D2E/DX2                !
 ! R50   R(21,23)                1.4638         estimate D2E/DX2                !
 ! R51   R(22,25)                1.4683         estimate D2E/DX2                !
 ! R52   R(23,24)                1.5202         estimate D2E/DX2                !
 ! R53   R(23,55)                1.0968         estimate D2E/DX2                !
 ! R54   R(23,56)                1.0949         estimate D2E/DX2                !
 ! R55   R(24,57)                1.0936         estimate D2E/DX2                !
 ! R56   R(24,58)                1.0961         estimate D2E/DX2                !
 ! R57   R(24,59)                1.093          estimate D2E/DX2                !
 ! R58   R(25,26)                1.5254         estimate D2E/DX2                !
 ! R59   R(25,60)                1.0951         estimate D2E/DX2                !
 ! R60   R(25,61)                1.0924         estimate D2E/DX2                !
 ! R61   R(26,62)                1.0946         estimate D2E/DX2                !
 ! R62   R(26,63)                1.0942         estimate D2E/DX2                !
 ! R63   R(26,64)                1.0959         estimate D2E/DX2                !
 ! A1    A(2,1,27)             109.6717         estimate D2E/DX2                !
 ! A2    A(2,1,28)             110.7992         estimate D2E/DX2                !
 ! A3    A(2,1,29)             109.4507         estimate D2E/DX2                !
 ! A4    A(27,1,28)            108.9791         estimate D2E/DX2                !
 ! A5    A(27,1,29)            108.9574         estimate D2E/DX2                !
 ! A6    A(28,1,29)            108.9518         estimate D2E/DX2                !
 ! A7    A(1,2,3)              110.9458         estimate D2E/DX2                !
 ! A8    A(1,2,8)              114.587          estimate D2E/DX2                !
 ! A9    A(1,2,30)             112.3734         estimate D2E/DX2                !
 ! A10   A(3,2,8)              100.8954         estimate D2E/DX2                !
 ! A11   A(3,2,30)             109.051          estimate D2E/DX2                !
 ! A12   A(8,2,30)             108.306          estimate D2E/DX2                !
 ! A13   A(2,3,4)              124.8215         estimate D2E/DX2                !
 ! A14   A(2,3,5)              112.1614         estimate D2E/DX2                !
 ! A15   A(4,3,5)              123.0164         estimate D2E/DX2                !
 ! A16   A(3,5,6)              116.9915         estimate D2E/DX2                !
 ! A17   A(5,6,7)              107.0861         estimate D2E/DX2                !
 ! A18   A(5,6,31)             108.1468         estimate D2E/DX2                !
 ! A19   A(5,6,32)             108.4035         estimate D2E/DX2                !
 ! A20   A(7,6,31)             112.4354         estimate D2E/DX2                !
 ! A21   A(7,6,32)             112.3115         estimate D2E/DX2                !
 ! A22   A(31,6,32)            108.3046         estimate D2E/DX2                !
 ! A23   A(6,7,33)             110.7918         estimate D2E/DX2                !
 ! A24   A(6,7,34)             109.6668         estimate D2E/DX2                !
 ! A25   A(6,7,35)             110.7699         estimate D2E/DX2                !
 ! A26   A(33,7,34)            108.4822         estimate D2E/DX2                !
 ! A27   A(33,7,35)            108.4684         estimate D2E/DX2                !
 ! A28   A(34,7,35)            108.5979         estimate D2E/DX2                !
 ! A29   A(2,8,9)              116.1779         estimate D2E/DX2                !
 ! A30   A(8,9,10)             105.8624         estimate D2E/DX2                !
 ! A31   A(8,9,14)             108.0798         estimate D2E/DX2                !
 ! A32   A(10,9,14)            116.9018         estimate D2E/DX2                !
 ! A33   A(9,10,11)            112.6128         estimate D2E/DX2                !
 ! A34   A(9,10,12)            108.8372         estimate D2E/DX2                !
 ! A35   A(9,10,13)            107.5103         estimate D2E/DX2                !
 ! A36   A(11,10,12)           110.0739         estimate D2E/DX2                !
 ! A37   A(11,10,13)           109.3501         estimate D2E/DX2                !
 ! A38   A(12,10,13)           108.338          estimate D2E/DX2                !
 ! A39   A(10,11,36)           110.1812         estimate D2E/DX2                !
 ! A40   A(10,11,37)           111.9169         estimate D2E/DX2                !
 ! A41   A(10,11,38)           109.2851         estimate D2E/DX2                !
 ! A42   A(36,11,37)           108.3996         estimate D2E/DX2                !
 ! A43   A(36,11,38)           109.4564         estimate D2E/DX2                !
 ! A44   A(37,11,38)           107.5395         estimate D2E/DX2                !
 ! A45   A(10,12,39)           112.967          estimate D2E/DX2                !
 ! A46   A(10,12,40)           111.0782         estimate D2E/DX2                !
 ! A47   A(10,12,41)           108.3878         estimate D2E/DX2                !
 ! A48   A(39,12,40)           108.6102         estimate D2E/DX2                !
 ! A49   A(39,12,41)           107.2929         estimate D2E/DX2                !
 ! A50   A(40,12,41)           108.3395         estimate D2E/DX2                !
 ! A51   A(10,13,42)           110.4942         estimate D2E/DX2                !
 ! A52   A(10,13,43)           111.1276         estimate D2E/DX2                !
 ! A53   A(10,13,44)           109.1995         estimate D2E/DX2                !
 ! A54   A(42,13,43)           109.0192         estimate D2E/DX2                !
 ! A55   A(42,13,44)           108.3165         estimate D2E/DX2                !
 ! A56   A(43,13,44)           108.6188         estimate D2E/DX2                !
 ! A57   A(9,14,15)            113.7166         estimate D2E/DX2                !
 ! A58   A(9,14,19)            114.2987         estimate D2E/DX2                !
 ! A59   A(9,14,45)            109.1264         estimate D2E/DX2                !
 ! A60   A(15,14,19)           112.4016         estimate D2E/DX2                !
 ! A61   A(15,14,45)           105.3353         estimate D2E/DX2                !
 ! A62   A(19,14,45)           100.6686         estimate D2E/DX2                !
 ! A63   A(14,15,16)           113.8608         estimate D2E/DX2                !
 ! A64   A(14,15,17)           106.8602         estimate D2E/DX2                !
 ! A65   A(14,15,18)           110.6151         estimate D2E/DX2                !
 ! A66   A(16,15,17)           107.8691         estimate D2E/DX2                !
 ! A67   A(16,15,18)           109.14           estimate D2E/DX2                !
 ! A68   A(17,15,18)           108.3014         estimate D2E/DX2                !
 ! A69   A(15,16,46)           108.6826         estimate D2E/DX2                !
 ! A70   A(15,16,47)           111.5379         estimate D2E/DX2                !
 ! A71   A(15,16,48)           110.8855         estimate D2E/DX2                !
 ! A72   A(46,16,47)           108.5206         estimate D2E/DX2                !
 ! A73   A(46,16,48)           107.6475         estimate D2E/DX2                !
 ! A74   A(47,16,48)           109.4542         estimate D2E/DX2                !
 ! A75   A(15,17,49)           111.7568         estimate D2E/DX2                !
 ! A76   A(15,17,50)           109.3113         estimate D2E/DX2                !
 ! A77   A(15,17,51)           110.6563         estimate D2E/DX2                !
 ! A78   A(49,17,50)           107.8566         estimate D2E/DX2                !
 ! A79   A(49,17,51)           108.8329         estimate D2E/DX2                !
 ! A80   A(50,17,51)           108.3258         estimate D2E/DX2                !
 ! A81   A(15,18,52)           112.2541         estimate D2E/DX2                !
 ! A82   A(15,18,53)           108.6529         estimate D2E/DX2                !
 ! A83   A(15,18,54)           112.0011         estimate D2E/DX2                !
 ! A84   A(52,18,53)           108.0899         estimate D2E/DX2                !
 ! A85   A(52,18,54)           107.2578         estimate D2E/DX2                !
 ! A86   A(53,18,54)           108.4498         estimate D2E/DX2                !
 ! A87   A(14,19,20)           113.3567         estimate D2E/DX2                !
 ! A88   A(14,19,21)           103.5688         estimate D2E/DX2                !
 ! A89   A(14,19,22)           113.1003         estimate D2E/DX2                !
 ! A90   A(20,19,21)           114.7777         estimate D2E/DX2                !
 ! A91   A(20,19,22)           108.7601         estimate D2E/DX2                !
 ! A92   A(21,19,22)           102.8382         estimate D2E/DX2                !
 ! A93   A(19,21,23)           121.1164         estimate D2E/DX2                !
 ! A94   A(19,22,25)           120.2465         estimate D2E/DX2                !
 ! A95   A(21,23,24)           106.5493         estimate D2E/DX2                !
 ! A96   A(21,23,55)           109.0899         estimate D2E/DX2                !
 ! A97   A(21,23,56)           108.0098         estimate D2E/DX2                !
 ! A98   A(24,23,55)           111.7835         estimate D2E/DX2                !
 ! A99   A(24,23,56)           111.6526         estimate D2E/DX2                !
 ! A100  A(55,23,56)           109.6132         estimate D2E/DX2                !
 ! A101  A(23,24,57)           110.4013         estimate D2E/DX2                !
 ! A102  A(23,24,58)           110.089          estimate D2E/DX2                !
 ! A103  A(23,24,59)           109.5812         estimate D2E/DX2                !
 ! A104  A(57,24,58)           108.7079         estimate D2E/DX2                !
 ! A105  A(57,24,59)           109.3095         estimate D2E/DX2                !
 ! A106  A(58,24,59)           108.7203         estimate D2E/DX2                !
 ! A107  A(22,25,26)           110.7593         estimate D2E/DX2                !
 ! A108  A(22,25,60)           109.8262         estimate D2E/DX2                !
 ! A109  A(22,25,61)           103.9167         estimate D2E/DX2                !
 ! A110  A(26,25,60)           110.5303         estimate D2E/DX2                !
 ! A111  A(26,25,61)           111.835          estimate D2E/DX2                !
 ! A112  A(60,25,61)           109.7827         estimate D2E/DX2                !
 ! A113  A(25,26,62)           110.366          estimate D2E/DX2                !
 ! A114  A(25,26,63)           110.1972         estimate D2E/DX2                !
 ! A115  A(25,26,64)           110.0044         estimate D2E/DX2                !
 ! A116  A(62,26,63)           109.3706         estimate D2E/DX2                !
 ! A117  A(62,26,64)           108.5268         estimate D2E/DX2                !
 ! A118  A(63,26,64)           108.3293         estimate D2E/DX2                !
 ! D1    D(27,1,2,3)            76.5548         estimate D2E/DX2                !
 ! D2    D(27,1,2,8)          -170.0098         estimate D2E/DX2                !
 ! D3    D(27,1,2,30)          -45.8244         estimate D2E/DX2                !
 ! D4    D(28,1,2,3)           -43.7933         estimate D2E/DX2                !
 ! D5    D(28,1,2,8)            69.6421         estimate D2E/DX2                !
 ! D6    D(28,1,2,30)         -166.1724         estimate D2E/DX2                !
 ! D7    D(29,1,2,3)          -163.9644         estimate D2E/DX2                !
 ! D8    D(29,1,2,8)           -50.529          estimate D2E/DX2                !
 ! D9    D(29,1,2,30)           73.6564         estimate D2E/DX2                !
 ! D10   D(1,2,3,4)             48.9964         estimate D2E/DX2                !
 ! D11   D(1,2,3,5)           -130.7179         estimate D2E/DX2                !
 ! D12   D(8,2,3,4)            -72.8317         estimate D2E/DX2                !
 ! D13   D(8,2,3,5)            107.454          estimate D2E/DX2                !
 ! D14   D(30,2,3,4)           173.2858         estimate D2E/DX2                !
 ! D15   D(30,2,3,5)            -6.4285         estimate D2E/DX2                !
 ! D16   D(1,2,8,9)             46.8703         estimate D2E/DX2                !
 ! D17   D(3,2,8,9)            166.1071         estimate D2E/DX2                !
 ! D18   D(30,2,8,9)           -79.449          estimate D2E/DX2                !
 ! D19   D(2,3,5,6)           -178.1622         estimate D2E/DX2                !
 ! D20   D(4,3,5,6)              2.1175         estimate D2E/DX2                !
 ! D21   D(3,5,6,7)            179.6618         estimate D2E/DX2                !
 ! D22   D(3,5,6,31)            58.2688         estimate D2E/DX2                !
 ! D23   D(3,5,6,32)           -58.9489         estimate D2E/DX2                !
 ! D24   D(5,6,7,33)           -61.4825         estimate D2E/DX2                !
 ! D25   D(5,6,7,34)           178.7947         estimate D2E/DX2                !
 ! D26   D(5,6,7,35)            58.9422         estimate D2E/DX2                !
 ! D27   D(31,6,7,33)           57.1655         estimate D2E/DX2                !
 ! D28   D(31,6,7,34)          -62.5572         estimate D2E/DX2                !
 ! D29   D(31,6,7,35)          177.5903         estimate D2E/DX2                !
 ! D30   D(32,6,7,33)          179.6262         estimate D2E/DX2                !
 ! D31   D(32,6,7,34)           59.9035         estimate D2E/DX2                !
 ! D32   D(32,6,7,35)          -59.949          estimate D2E/DX2                !
 ! D33   D(2,8,9,10)          -130.4051         estimate D2E/DX2                !
 ! D34   D(2,8,9,14)           103.6103         estimate D2E/DX2                !
 ! D35   D(8,9,10,11)          -61.2432         estimate D2E/DX2                !
 ! D36   D(8,9,10,12)          176.416          estimate D2E/DX2                !
 ! D37   D(8,9,10,13)           59.2731         estimate D2E/DX2                !
 ! D38   D(14,9,10,11)          59.1509         estimate D2E/DX2                !
 ! D39   D(14,9,10,12)         -63.1899         estimate D2E/DX2                !
 ! D40   D(14,9,10,13)         179.6673         estimate D2E/DX2                !
 ! D41   D(8,9,14,15)         -111.7699         estimate D2E/DX2                !
 ! D42   D(8,9,14,19)           19.1539         estimate D2E/DX2                !
 ! D43   D(8,9,14,45)          130.966          estimate D2E/DX2                !
 ! D44   D(10,9,14,15)         129.0176         estimate D2E/DX2                !
 ! D45   D(10,9,14,19)        -100.0586         estimate D2E/DX2                !
 ! D46   D(10,9,14,45)          11.7535         estimate D2E/DX2                !
 ! D47   D(9,10,11,36)          55.1543         estimate D2E/DX2                !
 ! D48   D(9,10,11,37)         -65.534          estimate D2E/DX2                !
 ! D49   D(9,10,11,38)         175.458          estimate D2E/DX2                !
 ! D50   D(12,10,11,36)        176.7957         estimate D2E/DX2                !
 ! D51   D(12,10,11,37)         56.1073         estimate D2E/DX2                !
 ! D52   D(12,10,11,38)        -62.9007         estimate D2E/DX2                !
 ! D53   D(13,10,11,36)        -64.2994         estimate D2E/DX2                !
 ! D54   D(13,10,11,37)        175.0122         estimate D2E/DX2                !
 ! D55   D(13,10,11,38)         56.0042         estimate D2E/DX2                !
 ! D56   D(9,10,12,39)          64.932          estimate D2E/DX2                !
 ! D57   D(9,10,12,40)         -57.3984         estimate D2E/DX2                !
 ! D58   D(9,10,12,41)        -176.3111         estimate D2E/DX2                !
 ! D59   D(11,10,12,39)        -58.9307         estimate D2E/DX2                !
 ! D60   D(11,10,12,40)        178.739          estimate D2E/DX2                !
 ! D61   D(11,10,12,41)         59.8263         estimate D2E/DX2                !
 ! D62   D(13,10,12,39)       -178.4533         estimate D2E/DX2                !
 ! D63   D(13,10,12,40)         59.2163         estimate D2E/DX2                !
 ! D64   D(13,10,12,41)        -59.6963         estimate D2E/DX2                !
 ! D65   D(9,10,13,42)          57.966          estimate D2E/DX2                !
 ! D66   D(9,10,13,43)         -63.1926         estimate D2E/DX2                !
 ! D67   D(9,10,13,44)         177.0058         estimate D2E/DX2                !
 ! D68   D(11,10,13,42)       -179.4784         estimate D2E/DX2                !
 ! D69   D(11,10,13,43)         59.363          estimate D2E/DX2                !
 ! D70   D(11,10,13,44)        -60.4386         estimate D2E/DX2                !
 ! D71   D(12,10,13,42)        -59.5021         estimate D2E/DX2                !
 ! D72   D(12,10,13,43)        179.3393         estimate D2E/DX2                !
 ! D73   D(12,10,13,44)         59.5377         estimate D2E/DX2                !
 ! D74   D(9,14,15,16)          56.2864         estimate D2E/DX2                !
 ! D75   D(9,14,15,17)         -62.7026         estimate D2E/DX2                !
 ! D76   D(9,14,15,18)         179.6149         estimate D2E/DX2                !
 ! D77   D(19,14,15,16)        -75.5668         estimate D2E/DX2                !
 ! D78   D(19,14,15,17)        165.4442         estimate D2E/DX2                !
 ! D79   D(19,14,15,18)         47.7617         estimate D2E/DX2                !
 ! D80   D(45,14,15,16)        175.7297         estimate D2E/DX2                !
 ! D81   D(45,14,15,17)         56.7407         estimate D2E/DX2                !
 ! D82   D(45,14,15,18)        -60.9418         estimate D2E/DX2                !
 ! D83   D(9,14,19,20)         158.1815         estimate D2E/DX2                !
 ! D84   D(9,14,19,21)         -76.8001         estimate D2E/DX2                !
 ! D85   D(9,14,19,22)          33.7759         estimate D2E/DX2                !
 ! D86   D(15,14,19,20)        -70.2562         estimate D2E/DX2                !
 ! D87   D(15,14,19,21)         54.7622         estimate D2E/DX2                !
 ! D88   D(15,14,19,22)        165.3381         estimate D2E/DX2                !
 ! D89   D(45,14,19,20)         41.3816         estimate D2E/DX2                !
 ! D90   D(45,14,19,21)        166.4            estimate D2E/DX2                !
 ! D91   D(45,14,19,22)        -83.0241         estimate D2E/DX2                !
 ! D92   D(14,15,16,46)        178.7546         estimate D2E/DX2                !
 ! D93   D(14,15,16,47)         59.1547         estimate D2E/DX2                !
 ! D94   D(14,15,16,48)        -63.1101         estimate D2E/DX2                !
 ! D95   D(17,15,16,46)        -62.8326         estimate D2E/DX2                !
 ! D96   D(17,15,16,47)        177.5674         estimate D2E/DX2                !
 ! D97   D(17,15,16,48)         55.3026         estimate D2E/DX2                !
 ! D98   D(18,15,16,46)         54.6273         estimate D2E/DX2                !
 ! D99   D(18,15,16,47)        -64.9727         estimate D2E/DX2                !
 ! D100  D(18,15,16,48)        172.7626         estimate D2E/DX2                !
 ! D101  D(14,15,17,49)        -61.0997         estimate D2E/DX2                !
 ! D102  D(14,15,17,50)        179.5803         estimate D2E/DX2                !
 ! D103  D(14,15,17,51)         60.3604         estimate D2E/DX2                !
 ! D104  D(16,15,17,49)        176.093          estimate D2E/DX2                !
 ! D105  D(16,15,17,50)         56.7729         estimate D2E/DX2                !
 ! D106  D(16,15,17,51)        -62.4469         estimate D2E/DX2                !
 ! D107  D(18,15,17,49)         58.0924         estimate D2E/DX2                !
 ! D108  D(18,15,17,50)        -61.2277         estimate D2E/DX2                !
 ! D109  D(18,15,17,51)        179.5525         estimate D2E/DX2                !
 ! D110  D(14,15,18,52)        -72.5258         estimate D2E/DX2                !
 ! D111  D(14,15,18,53)        167.987          estimate D2E/DX2                !
 ! D112  D(14,15,18,54)         48.2086         estimate D2E/DX2                !
 ! D113  D(16,15,18,52)         53.492          estimate D2E/DX2                !
 ! D114  D(16,15,18,53)        -65.9952         estimate D2E/DX2                !
 ! D115  D(16,15,18,54)        174.2264         estimate D2E/DX2                !
 ! D116  D(17,15,18,52)        170.6787         estimate D2E/DX2                !
 ! D117  D(17,15,18,53)         51.1916         estimate D2E/DX2                !
 ! D118  D(17,15,18,54)        -68.5869         estimate D2E/DX2                !
 ! D119  D(14,19,21,23)        172.7772         estimate D2E/DX2                !
 ! D120  D(20,19,21,23)        -63.1259         estimate D2E/DX2                !
 ! D121  D(22,19,21,23)         54.8106         estimate D2E/DX2                !
 ! D122  D(14,19,22,25)        121.4683         estimate D2E/DX2                !
 ! D123  D(20,19,22,25)         -5.4067         estimate D2E/DX2                !
 ! D124  D(21,19,22,25)       -127.5046         estimate D2E/DX2                !
 ! D125  D(19,21,23,24)        170.8367         estimate D2E/DX2                !
 ! D126  D(19,21,23,55)         50.0059         estimate D2E/DX2                !
 ! D127  D(19,21,23,56)        -69.0732         estimate D2E/DX2                !
 ! D128  D(19,22,25,26)         89.9956         estimate D2E/DX2                !
 ! D129  D(19,22,25,60)        -32.3718         estimate D2E/DX2                !
 ! D130  D(19,22,25,61)       -149.7586         estimate D2E/DX2                !
 ! D131  D(21,23,24,57)        -60.0096         estimate D2E/DX2                !
 ! D132  D(21,23,24,58)        179.9638         estimate D2E/DX2                !
 ! D133  D(21,23,24,59)         60.4382         estimate D2E/DX2                !
 ! D134  D(55,23,24,57)         59.0798         estimate D2E/DX2                !
 ! D135  D(55,23,24,58)        -60.9468         estimate D2E/DX2                !
 ! D136  D(55,23,24,59)        179.5277         estimate D2E/DX2                !
 ! D137  D(56,23,24,57)       -177.7193         estimate D2E/DX2                !
 ! D138  D(56,23,24,58)         62.2541         estimate D2E/DX2                !
 ! D139  D(56,23,24,59)        -57.2715         estimate D2E/DX2                !
 ! D140  D(22,25,26,62)         53.1214         estimate D2E/DX2                !
 ! D141  D(22,25,26,63)        -67.7782         estimate D2E/DX2                !
 ! D142  D(22,25,26,64)        172.8469         estimate D2E/DX2                !
 ! D143  D(60,25,26,62)        175.0773         estimate D2E/DX2                !
 ! D144  D(60,25,26,63)         54.1777         estimate D2E/DX2                !
 ! D145  D(60,25,26,64)        -65.1973         estimate D2E/DX2                !
 ! D146  D(61,25,26,62)        -62.2806         estimate D2E/DX2                !
 ! D147  D(61,25,26,63)        176.8197         estimate D2E/DX2                !
 ! D148  D(61,25,26,64)         57.4448         estimate D2E/DX2                !
 --------------------------------------------------------------------------------
 Trust Radius=3.00D-01 FncErr=1.00D-07 GrdErr=1.00D-06 EigMax=2.50D+02 EigMin=1.00D-04
 Number of steps in this run=    339 maximum allowed number of steps=    384.
 GradGradGradGradGradGradGradGradGradGradGradGradGradGradGradGradGradGrad

 Leave Link  103 at Tue Jan  7 18:20:31 2025, MaxMem=  4026531840 cpu:               0.4 elap:               0.0
 (Enter /usr/local/intel/g16/l202.exe)
 Stoichiometry    C18H38NO6P
 Framework group  C1[X(C18H38NO6P)]
 Deg. of freedom   186
 Full point group                 C1      NOp   1
 Largest Abelian subgroup         C1      NOp   1
 Largest concise Abelian subgroup C1      NOp   1
                         Standard orientation:                         
 ---------------------------------------------------------------------
 Center     Atomic      Atomic             Coordinates (Angstroms)
 Number     Number       Type             X           Y           Z
 ---------------------------------------------------------------------
      1          6           0       -0.100108    3.028036   -1.378125
      2          6           0        0.562490    1.774249   -0.814111
      3          6           0        1.873058    2.118527   -0.112352
      4          8           0        2.010309    3.016511    0.723958
      5          8           0        2.901635    1.316528   -0.519136
      6          6           0        4.211054    1.530150    0.123477
      7          6           0        5.176083    0.524609   -0.483947
      8          8           0       -0.177057    1.131728    0.278944
      9          7           0       -1.607583    0.944039    0.064837
     10          6           0       -2.288330    1.485729    1.309977
     11          6           0       -1.873390    0.728547    2.590762
     12          6           0       -3.815177    1.403377    1.118040
     13          6           0       -1.896301    2.968473    1.444337
     14          6           0       -1.840475   -0.481632   -0.259451
     15          6           0       -2.305200   -0.725929   -1.745089
     16          6           0       -1.336577   -0.160094   -2.802539
     17          6           0       -3.663850   -0.007782   -1.913752
     18          6           0       -2.517768   -2.235857   -2.008122
     19         15           0       -0.422725   -1.645779    0.259015
     20          8           0       -0.877747   -3.158364    0.421642
     21          8           0        0.758215   -1.383969   -0.923303
     22          8           0        0.358131   -1.151844    1.689736
     23          6           0        2.090434   -1.979328   -0.806722
     24          6           0        2.793716   -1.729656   -2.131161
     25          6           0        0.406963   -2.047046    2.852607
     26          6           0        1.649723   -2.930125    2.803285
     27          1           0        0.415754    3.337776   -2.293119
     28          1           0       -0.062145    3.845446   -0.654938
     29          1           0       -1.144434    2.812281   -1.615191
     30          1           0        0.756498    1.025173   -1.583390
     31          1           0        4.088043    1.392012    1.201598
     32          1           0        4.520073    2.564067   -0.057456
     33          1           0        4.847650   -0.498784   -0.283048
     34          1           0        6.171867    0.661036   -0.049953
     35          1           0        5.246108    0.659657   -1.566758
     36          1           0       -0.787303    0.737341    2.698197
     37          1           0       -2.211754   -0.315524    2.577241
     38          1           0       -2.330086    1.212353    3.461080
     39          1           0       -4.181135    0.374449    1.040749
     40          1           0       -4.129661    1.953346    0.227165
     41          1           0       -4.297887    1.855851    1.990536
     42          1           0       -2.190608    3.525287    0.549193
     43          1           0       -0.820095    3.079107    1.594541
     44          1           0       -2.416031    3.401877    2.305736
     45          1           0       -2.657243   -0.864389    0.367031
     46          1           0       -1.728249   -0.395450   -3.799315
     47          1           0       -0.340318   -0.598049   -2.708917
     48          1           0       -1.264975    0.927967   -2.722967
     49          1           0       -4.424322   -0.411968   -1.234810
     50          1           0       -4.022013   -0.146269   -2.940144
     51          1           0       -3.558952    1.064813   -1.727946
     52          1           0       -1.572910   -2.783029   -2.066690
     53          1           0       -3.039842   -2.354991   -2.964339
     54          1           0       -3.118814   -2.708359   -1.223811
     55          1           0        1.987339   -3.050782   -0.596264
     56          1           0        2.608454   -1.489739    0.024335
     57          1           0        2.238015   -2.193098   -2.951195
     58          1           0        3.803984   -2.154280   -2.106912
     59          1           0        2.869544   -0.653794   -2.308551
     60          1           0       -0.499247   -2.660906    2.887088
     61          1           0        0.425514   -1.366884    3.707169
     62          1           0        2.548163   -2.316923    2.680980
     63          1           0        1.577472   -3.637896    1.971986
     64          1           0        1.741538   -3.500524    3.734581
 ---------------------------------------------------------------------
 Rotational constants (GHZ):           0.2212644           0.1705837           0.1474598
 Leave Link  202 at Tue Jan  7 18:20:31 2025, MaxMem=  4026531840 cpu:               0.1 elap:               0.0
 (Enter /usr/local/intel/g16/l301.exe)
 Standard basis: def2TZVP (5D, 7F)
 Ernie: Thresh=  0.10000D-02 Tol=  0.10000D-05 Strict=F.
 There are  1170 symmetry adapted cartesian basis functions of A   symmetry.
 There are  1040 symmetry adapted basis functions of A   symmetry.
  1040 basis functions,  1648 primitive gaussians,  1170 cartesian basis functions
   108 alpha electrons      108 beta electrons
       nuclear repulsion energy      3179.1171625462 Hartrees.
 IExCor= 4336 DFT=T Ex+Corr=M062X ExCW=0 ScaHFX=  0.540000
 ScaDFX=  1.000000  1.000000  1.000000  1.000000 ScalE2=  1.000000  1.000000
 IRadAn=      5 IRanWt=     -1 IRanGd=            0 ICorTp=0 IEmpDi=  4
 NAtoms=   64 NActive=   64 NUniq=   64 SFac= 1.00D+00 NAtFMM=   60 NAOKFM=T Big=T
 Integral buffers will be    131072 words long.
 Raffenetti 2 integral format.
 Two-electron integral symmetry is turned on.
 Leave Link  301 at Tue Jan  7 18:20:31 2025, MaxMem=  4026531840 cpu:               1.3 elap:               0.1
 (Enter /usr/local/intel/g16/l302.exe)
 NPDir=0 NMtPBC=     1 NCelOv=     1 NCel=       1 NClECP=     1 NCelD=      1
         NCelK=      1 NCelE2=     1 NClLst=     1 CellRange=     0.0.
 One-electron integrals computed using PRISM.
 One-electron integral symmetry used in STVInt
   1 Symmetry operations used in ECPInt.
 ECPInt:  NShTT=   97020 NPrTT=  286090 LenC2=   84636 LenP2D=  173336.
 LDataN:  DoStor=T MaxTD1= 6 Len=  172
 NBasis=  1040 RedAO= T EigKep=  5.05D-05  NBF=  1040
 NBsUse=  1040 1.00D-06 EigRej= -1.00D+00 NBFU=  1040
 Precomputing XC quadrature grid using
 IXCGrd= 4 IRadAn=           5 IRanWt=          -1 IRanGd=           0 AccXCQ= 0.00D+00.
 Generated NRdTot=       0 NPtTot=           0 NUsed=           0 NTot=          32
 NSgBfM=  1146  1143  1143  1146  1146 MxSgAt=    64 MxSgA2=    64.
 Leave Link  302 at Tue Jan  7 18:20:35 2025, MaxMem=  4026531840 cpu:              85.4 elap:               4.3
 (Enter /usr/local/intel/g16/l303.exe)
 DipDrv:  MaxL=1.
 Leave Link  303 at Tue Jan  7 18:20:36 2025, MaxMem=  4026531840 cpu:               7.8 elap:               0.5
 (Enter /usr/local/intel/g16/l401.exe)
 ExpMin= 9.04D-02 ExpMax= 5.24D+04 ExpMxC= 1.79D+03 IAcc=3 IRadAn=         5 AccDes= 0.00D+00
 Harris functional with IExCor= 1009 and IRadAn=       5 diagonalized for initial guess.
 HarFok:  IExCor= 1009 AccDes= 0.00D+00 IRadAn=         5 IDoV= 1 UseB2=F ITyADJ=14
 ICtDFT=  3500011 ScaDFX=  1.000000  1.000000  1.000000  1.000000
 FoFCou: FMM=F IPFlag=           0 FMFlag=      100000 FMFlg1=        2001
         NFxFlg=           0 DoJE=T BraDBF=F KetDBF=T FulRan=T
         wScrn=  0.000000 ICntrl=       500 IOpCl=  0 I1Cent=   200000004 NGrid=           0
         NMat0=    1 NMatS0=      1 NMatT0=    0 NMatD0=    1 NMtDS0=    0 NMtDT0=    0
 Petite list used in FoFCou.
 Harris En= -1555.67990840883    
 JPrj=0 DoOrth=F DoCkMO=F.
 Leave Link  401 at Tue Jan  7 18:20:48 2025, MaxMem=  4026531840 cpu:             245.0 elap:              12.3
 (Enter /usr/local/intel/g16/l502.exe)
 Integral symmetry usage will be decided dynamically.
 Closed shell SCF:
 Using DIIS extrapolation, IDIIS=  1040.
 NGot=  4026531840 LenX=  4023758518 LenY=  4022388448
 Requested convergence on RMS density matrix=1.00D-08 within 128 cycles.
 Requested convergence on MAX density matrix=1.00D-06.
 Requested convergence on             energy=1.00D-06.
 No special actions if energy rises.
 Fock matrices will be formed incrementally for  20 cycles.
 Integral accuracy reduced to 1.0D-05 until final iterations.

 Cycle   1  Pass 0  IDiag  1:
 FoFJK:  IHMeth= 1 ICntrl=       0 DoSepK=F KAlg= 0 I1Cent=           0 FoldK=F
 IRaf= 910000000 NMat=       1 IRICut=       1 DoRegI=T DoRafI=F ISym2E= 0 IDoP0=0 IntGTp=1.
 FoFCou: FMM=T IPFlag=           0 FMFlag=      100000 FMFlg1=        2001
         NFxFlg=           0 DoJE=F BraDBF=F KetDBF=F FulRan=T
         wScrn=  0.000000 ICntrl=         0 IOpCl=  0 I1Cent=           0 NGrid=           0
         NMat0=    1 NMatS0=      1 NMatT0=    0 NMatD0=    1 NMtDS0=    0 NMtDT0=    0
 Symmetry not used in FoFCou.
 FMM levels:  10  Number of levels for PrismC:   9
 E= -1555.18405339220    
 DIIS: error= 2.30D-02 at cycle   1 NSaved=   1.
 NSaved= 1 IEnMin= 1 EnMin= -1555.18405339220     IErMin= 1 ErrMin= 2.30D-02
 ErrMax= 2.30D-02  0.00D+00 EMaxC= 1.00D-01 BMatC= 1.30D+00 BMatP= 1.30D+00
 IDIUse=3 WtCom= 7.70D-01 WtEn= 2.30D-01
 Coeff-Com:  0.100D+01
 Coeff-En:   0.100D+01
 Coeff:      0.100D+01
 Gap=     0.331 Goal=   None    Shift=    0.000
 GapD=    0.331 DampG=1.000 DampE=0.500 DampFc=0.5000 IDamp=-1.
 Damping current iteration by 5.00D-01
 RMSDP=2.00D-03 MaxDP=3.52D-01              OVMax= 2.74D-01

 Cycle   2  Pass 0  IDiag  1:
 RMSU=  9.94D-04    CP:  9.83D-01
 E= -1555.64464987910     Delta-E=       -0.460596486904 Rises=F Damp=T
 DIIS: error= 3.94D-03 at cycle   2 NSaved=   2.
 NSaved= 2 IEnMin= 2 EnMin= -1555.64464987910     IErMin= 2 ErrMin= 3.94D-03
 ErrMax= 3.94D-03  0.00D+00 EMaxC= 1.00D-01 BMatC= 1.10D-01 BMatP= 1.30D+00
 IDIUse=3 WtCom= 9.61D-01 WtEn= 3.94D-02
 Coeff-Com:  0.194D-01 0.981D+00
 Coeff-En:   0.557D-01 0.944D+00
 Coeff:      0.208D-01 0.979D+00
 Gap=     0.390 Goal=   None    Shift=    0.000
 RMSDP=6.68D-04 MaxDP=8.03D-02 DE=-4.61D-01 OVMax= 1.46D-01

 Cycle   3  Pass 0  IDiag  1:
 RMSU=  6.62D-04    CP:  9.76D-01  9.21D-01
 E= -1556.12645967932     Delta-E=       -0.481809800221 Rises=F Damp=F
 DIIS: error= 7.10D-03 at cycle   3 NSaved=   3.
 NSaved= 3 IEnMin= 3 EnMin= -1556.12645967932     IErMin= 2 ErrMin= 3.94D-03
 ErrMax= 7.10D-03  0.00D+00 EMaxC= 1.00D-01 BMatC= 1.00D-01 BMatP= 1.10D-01
 IDIUse=3 WtCom= 9.29D-01 WtEn= 7.10D-02
 Coeff-Com: -0.600D-01 0.513D+00 0.547D+00
 Coeff-En:   0.000D+00 0.000D+00 0.100D+01
 Coeff:     -0.557D-01 0.477D+00 0.579D+00
 Gap=     0.322 Goal=   None    Shift=    0.000
 RMSDP=3.64D-04 MaxDP=5.05D-02 DE=-4.82D-01 OVMax= 8.08D-02

 Cycle   4  Pass 0  IDiag  1:
 RMSU=  2.74D-04    CP:  9.80D-01  1.07D+00  7.20D-01
 E= -1556.18993037111     Delta-E=       -0.063470691788 Rises=F Damp=F
 DIIS: error= 2.55D-03 at cycle   4 NSaved=   4.
 NSaved= 4 IEnMin= 4 EnMin= -1556.18993037111     IErMin= 4 ErrMin= 2.55D-03
 ErrMax= 2.55D-03  0.00D+00 EMaxC= 1.00D-01 BMatC= 1.50D-02 BMatP= 1.00D-01
 IDIUse=3 WtCom= 9.75D-01 WtEn= 2.55D-02
 Coeff-Com: -0.281D-01 0.872D-01 0.304D+00 0.637D+00
 Coeff-En:   0.000D+00 0.000D+00 0.122D+00 0.878D+00
 Coeff:     -0.274D-01 0.850D-01 0.300D+00 0.643D+00
 Gap=     0.320 Goal=   None    Shift=    0.000
 RMSDP=1.28D-04 MaxDP=2.63D-02 DE=-6.35D-02 OVMax= 2.35D-02

 Cycle   5  Pass 0  IDiag  1:
 RMSU=  7.56D-05    CP:  9.77D-01  1.04D+00  8.14D-01  7.24D-01
 E= -1556.20071141476     Delta-E=       -0.010781043649 Rises=F Damp=F
 DIIS: error= 4.52D-04 at cycle   5 NSaved=   5.
 NSaved= 5 IEnMin= 5 EnMin= -1556.20071141476     IErMin= 5 ErrMin= 4.52D-04
 ErrMax= 4.52D-04  0.00D+00 EMaxC= 1.00D-01 BMatC= 7.93D-04 BMatP= 1.50D-02
 IDIUse=3 WtCom= 9.95D-01 WtEn= 4.52D-03
 Coeff-Com: -0.100D-01 0.190D-01 0.116D+00 0.315D+00 0.560D+00
 Coeff-En:   0.000D+00 0.000D+00 0.000D+00 0.000D+00 0.100D+01
 Coeff:     -0.998D-02 0.190D-01 0.115D+00 0.314D+00 0.562D+00
 Gap=     0.316 Goal=   None    Shift=    0.000
 RMSDP=3.48D-05 MaxDP=5.62D-03 DE=-1.08D-02 OVMax= 3.66D-03

 Cycle   6  Pass 0  IDiag  1:
 RMSU=  3.29D-05    CP:  9.77D-01  1.04D+00  8.11D-01  7.51D-01  8.93D-01
 E= -1556.20128622101     Delta-E=       -0.000574806251 Rises=F Damp=F
 DIIS: error= 1.57D-04 at cycle   6 NSaved=   6.
 NSaved= 6 IEnMin= 6 EnMin= -1556.20128622101     IErMin= 6 ErrMin= 1.57D-04
 ErrMax= 1.57D-04  0.00D+00 EMaxC= 1.00D-01 BMatC= 4.81D-05 BMatP= 7.93D-04
 IDIUse=3 WtCom= 9.98D-01 WtEn= 1.57D-03
 Coeff-Com: -0.852D-03-0.141D-02 0.118D-01 0.541D-01 0.229D+00 0.708D+00
 Coeff-En:   0.000D+00 0.000D+00 0.000D+00 0.000D+00 0.000D+00 0.100D+01
 Coeff:     -0.850D-03-0.141D-02 0.118D-01 0.541D-01 0.228D+00 0.708D+00
 Gap=     0.317 Goal=   None    Shift=    0.000
 RMSDP=3.51D-05 MaxDP=2.24D-03 DE=-5.75D-04 OVMax= 8.80D-04

 Cycle   7  Pass 0  IDiag  1:
 RMSU=  2.79D-05    CP:  9.77D-01  1.04D+00  8.13D-01  7.56D-01  9.99D-01
                    CP:  1.60D+00
 E= -1556.20131577699     Delta-E=       -0.000029555974 Rises=F Damp=F
 DIIS: error= 2.69D-04 at cycle   7 NSaved=   7.
 NSaved= 7 IEnMin= 7 EnMin= -1556.20131577699     IErMin= 6 ErrMin= 1.57D-04
 ErrMax= 2.69D-04  0.00D+00 EMaxC= 1.00D-01 BMatC= 1.04D-05 BMatP= 4.81D-05
 IDIUse=3 WtCom= 9.98D-01 WtEn= 1.57D-03
 Coeff-Com:  0.145D-03-0.186D-02-0.486D-03 0.101D-01 0.929D-01 0.362D+00
 Coeff-Com:  0.537D+00
 Coeff-En:   0.000D+00 0.000D+00 0.000D+00 0.000D+00 0.000D+00 0.000D+00
 Coeff-En:   0.100D+01
 Coeff:      0.145D-03-0.186D-02-0.485D-03 0.101D-01 0.928D-01 0.362D+00
 Coeff:      0.538D+00
 Gap=     0.316 Goal=   None    Shift=    0.000
 RMSDP=4.53D-05 MaxDP=3.25D-03 DE=-2.96D-05 OVMax= 2.80D-04

 Cycle   8  Pass 0  IDiag  1:
 RMSU=  1.61D-05    CP:  9.77D-01  1.04D+00  8.13D-01  7.55D-01  1.09D+00
                    CP:  2.45D+00  2.11D+00
 E= -1556.20134686319     Delta-E=       -0.000031086207 Rises=F Damp=F
 DIIS: error= 3.90D-04 at cycle   8 NSaved=   8.
 NSaved= 8 IEnMin= 8 EnMin= -1556.20134686319     IErMin= 6 ErrMin= 1.57D-04
 ErrMax= 3.90D-04  0.00D+00 EMaxC= 1.00D-01 BMatC= 1.79D-05 BMatP= 1.04D-05
 IDIUse=3 WtCom= 9.98D-01 WtEn= 1.57D-03
 Coeff-Com:  0.632D-03-0.325D-02-0.546D-02-0.309D-04 0.963D-01 0.462D+00
 Coeff-Com:  0.111D+01-0.659D+00
 Coeff-En:   0.000D+00 0.000D+00 0.000D+00 0.000D+00 0.000D+00 0.000D+00
 Coeff-En:   0.000D+00 0.100D+01
 Coeff:      0.631D-03-0.324D-02-0.545D-02-0.308D-04 0.962D-01 0.461D+00
 Coeff:      0.111D+01-0.656D+00
 Gap=     0.316 Goal=   None    Shift=    0.000
 RMSDP=6.67D-05 MaxDP=3.96D-03 DE=-3.11D-05 OVMax= 2.32D-04

 Cycle   9  Pass 0  IDiag  1:
 RMSU=  9.96D-06    CP:  9.77D-01  1.04D+00  8.13D-01  7.58D-01  1.03D+00
                    CP:  1.31D+00  3.80D-01 -5.34D-01
 E= -1556.20129423451     Delta-E=        0.000052628686 Rises=F Damp=F
 DIIS: error= 2.11D-04 at cycle   9 NSaved=   9.
 NSaved= 9 IEnMin= 8 EnMin= -1556.20134686319     IErMin= 6 ErrMin= 1.57D-04
 ErrMax= 2.11D-04  0.00D+00 EMaxC= 1.00D-01 BMatC= 5.42D-06 BMatP= 1.04D-05
 IDIUse=3 WtCom= 9.98D-01 WtEn= 1.57D-03
 Rare condition: small coef for last iteration:  0.000D+00
 Coeff-Com:  0.690D-03-0.167D-02-0.785D-02-0.193D-01-0.528D-02 0.830D-01
 Coeff-Com:  0.782D+00-0.105D+01 0.122D+01
 Coeff-En:   0.000D+00 0.000D+00 0.000D+00 0.000D+00 0.000D+00 0.192D+00
 Coeff-En:   0.000D+00 0.000D+00 0.808D+00
 Coeff:      0.690D-03-0.167D-02-0.785D-02-0.193D-01-0.528D-02 0.830D-01
 Coeff:      0.782D+00-0.105D+01 0.122D+01
 Gap=     0.316 Goal=   None    Shift=    0.000
 RMSDP=5.63D-05 MaxDP=3.91D-03 DE= 5.26D-05 OVMax= 2.85D-04

 Cycle  10  Pass 0  IDiag  1:
 RMSU=  1.28D-05    CP:  9.77D-01  1.04D+00  8.16D-01  7.61D-01  1.07D+00
                    CP:  5.43D-01 -8.53D-01 -2.30D+00  2.89D+00
 E= -1556.20118826140     Delta-E=        0.000105973103 Rises=F Damp=F
 DIIS: error= 1.08D-04 at cycle  10 NSaved=  10.
 NSaved=10 IEnMin= 8 EnMin= -1556.20134686319     IErMin=10 ErrMin= 1.08D-04
 ErrMax= 1.08D-04  0.00D+00 EMaxC= 1.00D-01 BMatC= 1.66D-06 BMatP= 5.42D-06
 IDIUse=3 WtCom= 9.99D-01 WtEn= 1.08D-03
 Rare condition: small coef for last iteration:  0.000D+00
 Coeff-Com:  0.500D-03-0.118D-02-0.580D-02-0.146D-01-0.656D-02 0.487D-01
 Coeff-Com:  0.548D+00-0.766D+00 0.895D+00 0.302D+00
 Coeff-En:   0.000D+00 0.000D+00 0.000D+00 0.000D+00 0.000D+00 0.000D+00
 Coeff-En:   0.000D+00 0.000D+00 0.000D+00 0.100D+01
 Coeff:      0.500D-03-0.118D-02-0.580D-02-0.146D-01-0.656D-02 0.487D-01
 Coeff:      0.548D+00-0.766D+00 0.895D+00 0.302D+00
 Gap=     0.316 Goal=   None    Shift=    0.000
 RMSDP=1.16D-05 MaxDP=1.23D-03 DE= 1.06D-04 OVMax= 5.04D-05

 Cycle  11  Pass 0  IDiag  1:
 RMSU=  7.06D-06    CP:  9.77D-01  1.04D+00  8.17D-01  7.60D-01  1.12D+00
                    CP:  5.79D-01 -9.17D-01 -2.58D+00  3.00D+00  1.43D+00
 E= -1556.20114913001     Delta-E=        0.000039131394 Rises=F Damp=F
 DIIS: error= 1.13D-04 at cycle  11 NSaved=  11.
 NSaved=11 IEnMin= 8 EnMin= -1556.20134686319     IErMin=10 ErrMin= 1.08D-04
 ErrMax= 1.13D-04  0.00D+00 EMaxC= 1.00D-01 BMatC= 1.93D-06 BMatP= 1.66D-06
 IDIUse=3 WtCom= 9.99D-01 WtEn= 1.08D-03
 Rare condition: small coef for last iteration:  0.000D+00
 Coeff-Com:  0.655D-03-0.134D-02-0.783D-02-0.215D-01-0.216D-01 0.140D-01
 Coeff-Com:  0.672D+00-0.105D+01 0.135D+01 0.153D+01-0.147D+01
 Coeff-En:   0.000D+00 0.000D+00 0.000D+00 0.000D+00 0.000D+00 0.000D+00
 Coeff-En:   0.000D+00 0.000D+00 0.000D+00 0.000D+00 0.100D+01
 Coeff:      0.655D-03-0.134D-02-0.783D-02-0.215D-01-0.216D-01 0.140D-01
 Coeff:      0.672D+00-0.105D+01 0.135D+01 0.153D+01-0.147D+01
 Gap=     0.316 Goal=   None    Shift=    0.000
 RMSDP=3.28D-05 MaxDP=3.68D-03 DE= 3.91D-05 OVMax= 1.34D-04

 Cycle  12  Pass 0  IDiag  1:
 RMSU=  1.00D-05    CP:  9.77D-01  1.04D+00  8.15D-01  7.63D-01  9.81D-01
                    CP:  4.47D-01 -9.18D-01 -1.87D+00  1.68D+00  1.24D-01
                    CP: -4.22D-01
 E= -1556.20123816694     Delta-E=       -0.000089036928 Rises=F Damp=F
 DIIS: error= 6.56D-05 at cycle  12 NSaved=  12.
 NSaved=12 IEnMin= 8 EnMin= -1556.20134686319     IErMin=12 ErrMin= 6.56D-05
 ErrMax= 6.56D-05  0.00D+00 EMaxC= 1.00D-01 BMatC= 8.74D-07 BMatP= 1.66D-06
 IDIUse=1 WtCom= 1.00D+00 WtEn= 0.00D+00
 Coeff-Com:  0.259D-03-0.414D-03-0.354D-02-0.106D-01-0.171D-01-0.259D-01
 Coeff-Com:  0.254D+00-0.513D+00 0.690D+00 0.149D+01-0.194D+01 0.108D+01
 Coeff:      0.259D-03-0.414D-03-0.354D-02-0.106D-01-0.171D-01-0.259D-01
 Coeff:      0.254D+00-0.513D+00 0.690D+00 0.149D+01-0.194D+01 0.108D+01
 Gap=     0.316 Goal=   None    Shift=    0.000
 RMSDP=2.73D-05 MaxDP=2.93D-03 DE=-8.90D-05 OVMax= 1.21D-04

 Cycle  13  Pass 0  IDiag  1:
 RMSU=  1.36D-05    CP:  9.77D-01  1.04D+00  8.15D-01  7.62D-01  8.99D-01
                    CP:  2.83D-01 -1.00D+00 -1.56D+00  4.88D-01 -1.04D+00
                    CP: -1.24D+00  1.81D+00
 E= -1556.20126489290     Delta-E=       -0.000026725964 Rises=F Damp=F
 DIIS: error= 2.46D-05 at cycle  13 NSaved=  13.
 NSaved=13 IEnMin= 8 EnMin= -1556.20134686319     IErMin=13 ErrMin= 2.46D-05
 ErrMax= 2.46D-05  0.00D+00 EMaxC= 1.00D-01 BMatC= 3.70D-07 BMatP= 8.74D-07
 IDIUse=1 WtCom= 1.00D+00 WtEn= 0.00D+00
 Coeff-Com:  0.106D-03-0.143D-03-0.164D-02-0.509D-02-0.984D-02-0.204D-01
 Coeff-Com:  0.940D-01-0.221D+00 0.313D+00 0.844D+00-0.116D+01 0.687D+00
 Coeff-Com:  0.478D+00
 Coeff:      0.106D-03-0.143D-03-0.164D-02-0.509D-02-0.984D-02-0.204D-01
 Coeff:      0.940D-01-0.221D+00 0.313D+00 0.844D+00-0.116D+01 0.687D+00
 Coeff:      0.478D+00
 Gap=     0.316 Goal=   None    Shift=    0.000
 RMSDP=1.04D-05 MaxDP=1.27D-03 DE=-2.67D-05 OVMax= 3.89D-05

 Cycle  14  Pass 0  IDiag  1:
 RMSU=  7.64D-06    CP:  9.77D-01  1.04D+00  8.15D-01  7.61D-01  9.08D-01
                    CP:  3.64D-01 -1.03D+00 -1.50D+00  5.29D-01 -1.29D+00
                    CP: -1.40D+00  2.10D+00  1.31D+00
 E= -1556.20125027857     Delta-E=        0.000014614333 Rises=F Damp=F
 DIIS: error= 2.69D-05 at cycle  14 NSaved=  14.
 NSaved=14 IEnMin= 8 EnMin= -1556.20134686319     IErMin=13 ErrMin= 2.46D-05
 ErrMax= 2.69D-05  0.00D+00 EMaxC= 1.00D-01 BMatC= 3.89D-07 BMatP= 3.70D-07
 IDIUse=1 WtCom= 1.00D+00 WtEn= 0.00D+00
 Coeff-Com:  0.104D-03-0.146D-03-0.157D-02-0.482D-02-0.906D-02-0.180D-01
 Coeff-Com:  0.928D-01-0.211D+00 0.296D+00 0.764D+00-0.103D+01 0.589D+00
 Coeff-Com:  0.417D+00 0.112D+00
 Coeff:      0.104D-03-0.146D-03-0.157D-02-0.482D-02-0.906D-02-0.180D-01
 Coeff:      0.928D-01-0.211D+00 0.296D+00 0.764D+00-0.103D+01 0.589D+00
 Coeff:      0.417D+00 0.112D+00
 Gap=     0.316 Goal=   None    Shift=    0.000
 RMSDP=2.86D-06 MaxDP=3.57D-04 DE= 1.46D-05 OVMax= 8.41D-06

 Initial convergence to 1.0D-05 achieved.  Increase integral accuracy.
 Cycle  15  Pass 1  IDiag  1:
 E= -1556.20100309481     Delta-E=        0.000247183757 Rises=F Damp=F
 DIIS: error= 4.80D-04 at cycle   1 NSaved=   1.
 NSaved= 1 IEnMin= 1 EnMin= -1556.20100309481     IErMin= 1 ErrMin= 4.80D-04
 ErrMax= 4.80D-04  0.00D+00 EMaxC= 1.00D-01 BMatC= 2.56D-04 BMatP= 2.56D-04
 IDIUse=3 WtCom= 9.95D-01 WtEn= 4.80D-03
 Coeff-Com:  0.100D+01
 Coeff-En:   0.100D+01
 Coeff:      0.100D+01
 Gap=     0.316 Goal=   None    Shift=    0.000
 RMSDP=2.86D-06 MaxDP=3.57D-04 DE= 2.47D-04 OVMax= 1.42D-03

 Cycle  16  Pass 1  IDiag  1:
 RMSU=  3.79D-04    CP:  9.95D-01
 E= -1556.20117075705     Delta-E=       -0.000167662234 Rises=F Damp=F
 DIIS: error= 1.49D-05 at cycle   2 NSaved=   2.
 NSaved= 2 IEnMin= 2 EnMin= -1556.20117075705     IErMin= 2 ErrMin= 1.49D-05
 ErrMax= 1.49D-05  0.00D+00 EMaxC= 1.00D-01 BMatC= 1.60D-07 BMatP= 2.56D-04
 IDIUse=1 WtCom= 1.00D+00 WtEn= 0.00D+00
 Coeff-Com: -0.175D-01 0.102D+01
 Coeff:     -0.175D-01 0.102D+01
 Gap=     0.316 Goal=   None    Shift=    0.000
 RMSDP=1.38D-05 MaxDP=1.11D-03 DE=-1.68D-04 OVMax= 8.02D-05

 Cycle  17  Pass 1  IDiag  1:
 RMSU=  5.38D-06    CP:  9.95D-01  1.03D+00
 E= -1556.20117096264     Delta-E=       -0.000000205594 Rises=F Damp=F
 DIIS: error= 2.14D-06 at cycle   3 NSaved=   3.
 NSaved= 3 IEnMin= 3 EnMin= -1556.20117096264     IErMin= 3 ErrMin= 2.14D-06
 ErrMax= 2.14D-06  0.00D+00 EMaxC= 1.00D-01 BMatC= 3.04D-08 BMatP= 1.60D-07
 IDIUse=1 WtCom= 1.00D+00 WtEn= 0.00D+00
 Coeff-Com: -0.584D-02 0.325D+00 0.681D+00
 Coeff:     -0.584D-02 0.325D+00 0.681D+00
 Gap=     0.316 Goal=   None    Shift=    0.000
 RMSDP=4.59D-07 MaxDP=7.55D-05 DE=-2.06D-07 OVMax= 3.18D-05

 Cycle  18  Pass 1  IDiag  1:
 RMSU=  2.85D-07    CP:  9.95D-01  1.03D+00  1.05D+00
 E= -1556.20117097842     Delta-E=       -0.000000015778 Rises=F Damp=F
 DIIS: error= 1.38D-06 at cycle   4 NSaved=   4.
 NSaved= 4 IEnMin= 4 EnMin= -1556.20117097842     IErMin= 4 ErrMin= 1.38D-06
 ErrMax= 1.38D-06  0.00D+00 EMaxC= 1.00D-01 BMatC= 1.24D-08 BMatP= 3.04D-08
 IDIUse=1 WtCom= 1.00D+00 WtEn= 0.00D+00
 Coeff-Com:  0.247D-03-0.229D-01 0.386D+00 0.637D+00
 Coeff:      0.247D-03-0.229D-01 0.386D+00 0.637D+00
 Gap=     0.316 Goal=   None    Shift=    0.000
 RMSDP=2.26D-07 MaxDP=2.82D-05 DE=-1.58D-08 OVMax= 1.46D-05

 Cycle  19  Pass 1  IDiag  1:
 RMSU=  1.14D-07    CP:  9.95D-01  1.03D+00  1.07D+00  8.66D-01
 E= -1556.20117098740     Delta-E=       -0.000000008987 Rises=F Damp=F
 DIIS: error= 3.42D-07 at cycle   5 NSaved=   5.
 NSaved= 5 IEnMin= 5 EnMin= -1556.20117098740     IErMin= 5 ErrMin= 3.42D-07
 ErrMax= 3.42D-07  0.00D+00 EMaxC= 1.00D-01 BMatC= 5.65D-10 BMatP= 1.24D-08
 IDIUse=1 WtCom= 1.00D+00 WtEn= 0.00D+00
 Coeff-Com:  0.364D-03-0.248D-01 0.164D+00 0.313D+00 0.547D+00
 Coeff:      0.364D-03-0.248D-01 0.164D+00 0.313D+00 0.547D+00
 Gap=     0.316 Goal=   None    Shift=    0.000
 RMSDP=2.93D-08 MaxDP=2.15D-06 DE=-8.99D-09 OVMax= 4.47D-06

 Cycle  20  Pass 1  IDiag  1:
 RMSU=  2.50D-08    CP:  9.95D-01  1.03D+00  1.08D+00  8.89D-01  1.00D+00
 E= -1556.20117098787     Delta-E=       -0.000000000467 Rises=F Damp=F
 DIIS: error= 1.08D-07 at cycle   6 NSaved=   6.
 NSaved= 6 IEnMin= 6 EnMin= -1556.20117098787     IErMin= 6 ErrMin= 1.08D-07
 ErrMax= 1.08D-07  0.00D+00 EMaxC= 1.00D-01 BMatC= 4.29D-11 BMatP= 5.65D-10
 IDIUse=1 WtCom= 1.00D+00 WtEn= 0.00D+00
 Coeff-Com:  0.907D-04-0.519D-02-0.312D-02 0.767D-02 0.186D+00 0.815D+00
 Coeff:      0.907D-04-0.519D-02-0.312D-02 0.767D-02 0.186D+00 0.815D+00
 Gap=     0.316 Goal=   None    Shift=    0.000
 RMSDP=1.35D-08 MaxDP=1.80D-06 DE=-4.67D-10 OVMax= 1.66D-06

 Cycle  21  Pass 1  IDiag  1:
 RMSU=  9.45D-09    CP:  9.95D-01  1.03D+00  1.08D+00  8.98D-01  1.08D+00
                    CP:  1.02D+00
 E= -1556.20117098784     Delta-E=        0.000000000029 Rises=F Damp=F
 DIIS: error= 6.85D-08 at cycle   7 NSaved=   7.
 NSaved= 7 IEnMin= 6 EnMin= -1556.20117098787     IErMin= 7 ErrMin= 6.85D-08
 ErrMax= 6.85D-08  0.00D+00 EMaxC= 1.00D-01 BMatC= 1.36D-11 BMatP= 4.29D-11
 IDIUse=1 WtCom= 1.00D+00 WtEn= 0.00D+00
 Coeff-Com: -0.149D-04 0.153D-02-0.299D-01-0.496D-01 0.443D-02 0.434D+00
 Coeff-Com:  0.639D+00
 Coeff:     -0.149D-04 0.153D-02-0.299D-01-0.496D-01 0.443D-02 0.434D+00
 Coeff:      0.639D+00
 Gap=     0.316 Goal=   None    Shift=    0.000
 RMSDP=5.54D-09 MaxDP=7.17D-07 DE= 2.91D-11 OVMax= 1.15D-06

 SCF Done:  E(RM062X) =  -1556.20117099     A.U. after   21 cycles
            NFock= 21  Conv=0.55D-08     -V/T= 2.0053
 KE= 1.547948933700D+03 PE=-1.000387090250D+04 EE= 3.720603635264D+03
 Leave Link  502 at Tue Jan  7 18:45:40 2025, MaxMem=  4026531840 cpu:           29779.0 elap:            1492.0
 (Enter /usr/local/intel/g16/l601.exe)
 Copying SCF densities to generalized density rwf, IOpCl= 0 IROHF=0.

 **********************************************************************

            Population analysis using the SCF Density.

 **********************************************************************

 Orbital symmetries:
       Occupied  (A) (A) (A) (A) (A) (A) (A) (A) (A) (A) (A) (A)
                 (A) (A) (A) (A) (A) (A) (A) (A) (A) (A) (A) (A)
                 (A) (A) (A) (A) (A) (A) (A) (A) (A) (A) (A) (A)
                 (A) (A) (A) (A) (A) (A) (A) (A) (A) (A) (A) (A)
                 (A) (A) (A) (A) (A) (A) (A) (A) (A) (A) (A) (A)
                 (A) (A) (A) (A) (A) (A) (A) (A) (A) (A) (A) (A)
                 (A) (A) (A) (A) (A) (A) (A) (A) (A) (A) (A) (A)
                 (A) (A) (A) (A) (A) (A) (A) (A) (A) (A) (A) (A)
                 (A) (A) (A) (A) (A) (A) (A) (A) (A) (A) (A) (A)
       Virtual   (A) (A) (A) (A) (A) (A) (A) (A) (A) (A) (A) (A)
                 (A) (A) (A) (A) (A) (A) (A) (A) (A) (A) (A) (A)
                 (A) (A) (A) (A) (A) (A) (A) (A) (A) (A) (A) (A)
                 (A) (A) (A) (A) (A) (A) (A) (A) (A) (A) (A) (A)
                 (A) (A) (A) (A) (A) (A) (A) (A) (A) (A) (A) (A)
                 (A) (A) (A) (A) (A) (A) (A) (A) (A) (A) (A) (A)
                 (A) (A) (A) (A) (A) (A) (A) (A) (A) (A) (A) (A)
                 (A) (A) (A) (A) (A) (A) (A) (A) (A) (A) (A) (A)
                 (A) (A) (A) (A) (A) (A) (A) (A) (A) (A) (A) (A)
                 (A) (A) (A) (A) (A) (A) (A) (A) (A) (A) (A) (A)
                 (A) (A) (A) (A) (A) (A) (A) (A) (A) (A) (A) (A)
                 (A) (A) (A) (A) (A) (A) (A) (A) (A) (A) (A) (A)
                 (A) (A) (A) (A) (A) (A) (A) (A) (A) (A) (A) (A)
                 (A) (A) (A) (A) (A) (A) (A) (A) (A) (A) (A) (A)
                 (A) (A) (A) (A) (A) (A) (A) (A) (A) (A) (A) (A)
                 (A) (A) (A) (A) (A) (A) (A) (A) (A) (A) (A) (A)
                 (A) (A) (A) (A) (A) (A) (A) (A) (A) (A) (A) (A)
                 (A) (A) (A) (A) (A) (A) (A) (A) (A) (A) (A) (A)
                 (A) (A) (A) (A) (A) (A) (A) (A) (A) (A) (A) (A)
                 (A) (A) (A) (A) (A) (A) (A) (A) (A) (A) (A) (A)
                 (A) (A) (A) (A) (A) (A) (A) (A) (A) (A) (A) (A)
                 (A) (A) (A) (A) (A) (A) (A) (A) (A) (A) (A) (A)
                 (A) (A) (A) (A) (A) (A) (A) (A) (A) (A) (A) (A)
                 (A) (A) (A) (A) (A) (A) (A) (A) (A) (A) (A) (A)
                 (A) (A) (A) (A) (A) (A) (A) (A) (A) (A) (A) (A)
                 (A) (A) (A) (A) (A) (A) (A) (A) (A) (A) (A) (A)
                 (A) (A) (A) (A) (A) (A) (A) (A) (A) (A) (A) (A)
                 (A) (A) (A) (A) (A) (A) (A) (A) (A) (A) (A) (A)
                 (A) (A) (A) (A) (A) (A) (A) (A) (A) (A) (A) (A)
                 (A) (A) (A) (A) (A) (A) (A) (A) (A) (A) (A) (A)
                 (A) (A) (A) (A) (A) (A) (A) (A) (A) (A) (A) (A)
                 (A) (A) (A) (A) (A) (A) (A) (A) (A) (A) (A) (A)
                 (A) (A) (A) (A) (A) (A) (A) (A) (A) (A) (A) (A)
                 (A) (A) (A) (A) (A) (A) (A) (A) (A) (A) (A) (A)
                 (A) (A) (A) (A) (A) (A) (A) (A) (A) (A) (A) (A)
                 (A) (A) (A) (A) (A) (A) (A) (A) (A) (A) (A) (A)
                 (A) (A) (A) (A) (A) (A) (A) (A) (A) (A) (A) (A)
                 (A) (A) (A) (A) (A) (A) (A) (A) (A) (A) (A) (A)
                 (A) (A) (A) (A) (A) (A) (A) (A) (A) (A) (A) (A)
                 (A) (A) (A) (A) (A) (A) (A) (A) (A) (A) (A) (A)
                 (A) (A) (A) (A) (A) (A) (A) (A) (A) (A) (A) (A)
                 (A) (A) (A) (A) (A) (A) (A) (A) (A) (A) (A) (A)
                 (A) (A) (A) (A) (A) (A) (A) (A) (A) (A) (A) (A)
                 (A) (A) (A) (A) (A) (A) (A) (A) (A) (A) (A) (A)
                 (A) (A) (A) (A) (A) (A) (A) (A) (A) (A) (A) (A)
                 (A) (A) (A) (A) (A) (A) (A) (A) (A) (A) (A) (A)
                 (A) (A) (A) (A) (A) (A) (A) (A) (A) (A) (A) (A)
                 (A) (A) (A) (A) (A) (A) (A) (A) (A) (A) (A) (A)
                 (A) (A) (A) (A) (A) (A) (A) (A) (A) (A) (A) (A)
                 (A) (A) (A) (A) (A) (A) (A) (A) (A) (A) (A) (A)
                 (A) (A) (A) (A) (A) (A) (A) (A) (A) (A) (A) (A)
                 (A) (A) (A) (A) (A) (A) (A) (A) (A) (A) (A) (A)
                 (A) (A) (A) (A) (A) (A) (A) (A) (A) (A) (A) (A)
                 (A) (A) (A) (A) (A) (A) (A) (A) (A) (A) (A) (A)
                 (A) (A) (A) (A) (A) (A) (A) (A) (A) (A) (A) (A)
                 (A) (A) (A) (A) (A) (A) (A) (A) (A) (A) (A) (A)
                 (A) (A) (A) (A) (A) (A) (A) (A) (A) (A) (A) (A)
                 (A) (A) (A) (A) (A) (A) (A) (A) (A) (A) (A) (A)
                 (A) (A) (A) (A) (A) (A) (A) (A) (A) (A) (A) (A)
                 (A) (A) (A) (A) (A) (A) (A) (A) (A) (A) (A) (A)
                 (A) (A) (A) (A) (A) (A) (A) (A) (A) (A) (A) (A)
                 (A) (A) (A) (A) (A) (A) (A) (A) (A) (A) (A) (A)
                 (A) (A) (A) (A) (A) (A) (A) (A) (A) (A) (A) (A)
                 (A) (A) (A) (A) (A) (A) (A) (A) (A) (A) (A) (A)
                 (A) (A) (A) (A) (A) (A) (A) (A) (A) (A) (A) (A)
                 (A) (A) (A) (A) (A) (A) (A) (A) (A) (A) (A) (A)
                 (A) (A) (A) (A) (A) (A) (A) (A) (A) (A) (A) (A)
                 (A) (A) (A) (A) (A) (A) (A) (A) (A) (A) (A) (A)
                 (A) (A) (A) (A) (A) (A) (A) (A) (A) (A) (A) (A)
                 (A) (A) (A) (A) (A) (A) (A) (A) (A) (A) (A) (A)
                 (A) (A) (A) (A) (A) (A) (A) (A) (A) (A) (A) (A)
                 (A) (A) (A) (A) (A) (A) (A) (A) (A) (A) (A) (A)
                 (A) (A) (A) (A) (A) (A) (A) (A) (A) (A) (A) (A)
                 (A) (A) (A) (A) (A) (A) (A) (A) (A) (A) (A) (A)
                 (A) (A) (A) (A) (A) (A) (A) (A) (A) (A) (A) (A)
                 (A) (A) (A) (A) (A) (A) (A) (A) (A) (A) (A) (A)
                 (A) (A) (A) (A) (A) (A) (A) (A) (A) (A) (A) (A)
                 (A) (A) (A) (A) (A) (A) (A) (A)
 The electronic state is 1-A.
 Alpha  occ. eigenvalues --  -78.15990 -19.67910 -19.66258 -19.65058 -19.64418
 Alpha  occ. eigenvalues --  -19.62281 -19.57516 -14.80734 -10.68099 -10.60811
 Alpha  occ. eigenvalues --  -10.60567 -10.59887 -10.59746 -10.59073 -10.58606
 Alpha  occ. eigenvalues --  -10.56186 -10.54489 -10.53341 -10.53322 -10.53220
 Alpha  occ. eigenvalues --  -10.52742 -10.52506 -10.52041 -10.51964 -10.51864
 Alpha  occ. eigenvalues --  -10.51648  -6.95323  -5.07150  -5.07032  -5.06867
 Alpha  occ. eigenvalues --   -1.22321  -1.18535  -1.15923  -1.13073  -1.12601
 Alpha  occ. eigenvalues --   -1.03239  -0.99119  -0.92388  -0.89421  -0.87575
 Alpha  occ. eigenvalues --   -0.86107  -0.84813  -0.84614  -0.78939  -0.78296
 Alpha  occ. eigenvalues --   -0.77358  -0.77336  -0.76559  -0.75532  -0.72237
 Alpha  occ. eigenvalues --   -0.71129  -0.70384  -0.65254  -0.64360  -0.63716
 Alpha  occ. eigenvalues --   -0.61377  -0.59827  -0.58524  -0.58027  -0.57272
 Alpha  occ. eigenvalues --   -0.56307  -0.55716  -0.55163  -0.54169  -0.53805
 Alpha  occ. eigenvalues --   -0.52802  -0.52321  -0.50945  -0.50544  -0.50173
 Alpha  occ. eigenvalues --   -0.49924  -0.49649  -0.48400  -0.48183  -0.47986
 Alpha  occ. eigenvalues --   -0.47394  -0.47119  -0.46143  -0.45779  -0.45708
 Alpha  occ. eigenvalues --   -0.45146  -0.44851  -0.44684  -0.44585  -0.44046
 Alpha  occ. eigenvalues --   -0.43871  -0.43530  -0.43453  -0.43089  -0.42760
 Alpha  occ. eigenvalues --   -0.42371  -0.42041  -0.41636  -0.40618  -0.40356
 Alpha  occ. eigenvalues --   -0.39532  -0.39191  -0.39113  -0.38186  -0.37857
 Alpha  occ. eigenvalues --   -0.37752  -0.37327  -0.36129  -0.35826  -0.34766
 Alpha  occ. eigenvalues --   -0.34333  -0.33697  -0.29527
 Alpha virt. eigenvalues --    0.02118   0.04598   0.05445   0.06974   0.07236
 Alpha virt. eigenvalues --    0.07478   0.08176   0.08513   0.08615   0.09078
 Alpha virt. eigenvalues --    0.09498   0.10022   0.10281   0.10684   0.11032
 Alpha virt. eigenvalues --    0.11663   0.12000   0.12251   0.12449   0.12972
 Alpha virt. eigenvalues --    0.13267   0.13552   0.13785   0.14269   0.14340
 Alpha virt. eigenvalues --    0.14590   0.14825   0.15239   0.15613   0.15998
 Alpha virt. eigenvalues --    0.16091   0.16661   0.16717   0.17212   0.17455
 Alpha virt. eigenvalues --    0.17606   0.17840   0.18364   0.18551   0.18889
 Alpha virt. eigenvalues --    0.19159   0.19241   0.19385   0.19900   0.20154
 Alpha virt. eigenvalues --    0.20357   0.20641   0.20909   0.21142   0.21482
 Alpha virt. eigenvalues --    0.21780   0.22257   0.22455   0.23058   0.23184
 Alpha virt. eigenvalues --    0.23464   0.23702   0.24440   0.24679   0.25088
 Alpha virt. eigenvalues --    0.25312   0.25356   0.25972   0.26767   0.27186
 Alpha virt. eigenvalues --    0.27318   0.27845   0.28478   0.28614   0.28916
 Alpha virt. eigenvalues --    0.29572   0.30278   0.30413   0.31172   0.31822
 Alpha virt. eigenvalues --    0.32460   0.32847   0.33693   0.34108   0.34684
 Alpha virt. eigenvalues --    0.34910   0.35271   0.35533   0.36133   0.36521
 Alpha virt. eigenvalues --    0.36536   0.37282   0.37561   0.38226   0.38785
 Alpha virt. eigenvalues --    0.38912   0.39458   0.39634   0.39780   0.40295
 Alpha virt. eigenvalues --    0.40653   0.40920   0.41286   0.41553   0.42287
 Alpha virt. eigenvalues --    0.42636   0.42851   0.43503   0.43652   0.43759
 Alpha virt. eigenvalues --    0.44174   0.44551   0.44765   0.45305   0.45506
 Alpha virt. eigenvalues --    0.45987   0.46267   0.46381   0.46780   0.47337
 Alpha virt. eigenvalues --    0.47394   0.47456   0.47598   0.48275   0.48464
 Alpha virt. eigenvalues --    0.48734   0.48923   0.49129   0.49537   0.49618
 Alpha virt. eigenvalues --    0.49786   0.50307   0.50425   0.50605   0.50840
 Alpha virt. eigenvalues --    0.51128   0.51371   0.51575   0.51774   0.52083
 Alpha virt. eigenvalues --    0.52345   0.52408   0.52766   0.52889   0.53033
 Alpha virt. eigenvalues --    0.53938   0.54148   0.54811   0.55248   0.55389
 Alpha virt. eigenvalues --    0.55631   0.55881   0.56120   0.56568   0.56775
 Alpha virt. eigenvalues --    0.57144   0.57569   0.57851   0.58950   0.59174
 Alpha virt. eigenvalues --    0.59456   0.59707   0.60400   0.60770   0.61041
 Alpha virt. eigenvalues --    0.61537   0.62287   0.62565   0.62831   0.63346
 Alpha virt. eigenvalues --    0.64075   0.64214   0.64314   0.65667   0.65858
 Alpha virt. eigenvalues --    0.66571   0.66647   0.67042   0.67695   0.68398
 Alpha virt. eigenvalues --    0.69488   0.69717   0.70278   0.71062   0.71427
[...]
 000155,-0.00002193,-0.00000212,0.00000478,-0.00000605,-0.00006716,-0.0
 0007913,0.00073012,-0.00033822,0.00035915,-0.00017314,0.00039031,-0.00
 004271,-0.00015925,-0.00171684,0.00162745,-0.00207682,-0.00031395,-0.0
 0002334,0.00003534,0.00006145,0.00001775,0.00002849,0.02158858,0.01140
 057,-0.00037853,-0.12235388,-0.12169558,0.00482716,-0.00000032,0.00000
 407,-0.00000287,0.00000100,-0.00000103,0.00000136,0.00000008,-0.000002
 23,0.00000119,-0.00000231,0.00000181,-0.00000697,-0.00000743,0.0000029
 4,-0.00003899,0.00001102,-0.00000464,-0.00001984,-0.00001210,0.0000021
 0,-0.00001611,0.00000677,0.00000342,-0.00000328,0.00000507,-0.00001643
 ,-0.00000183,0.00000233,-0.00001545,-0.00000792,-0.00005109,-0.0000230
 7,-0.00001617,-0.00000999,-0.00002298,0.00000308,-0.00000055,0.0000007
 1,-0.00000400,0.00000050,-0.00000292,-0.00000012,-0.00000232,0.0000021
 4,0.00000164,-0.00000249,-0.00000844,-0.00000090,0.00000037,-0.0000029
 7,0.00000004,-0.00000104,0.00000488,0.00000231,0.00000519,-0.00000599,
 -0.00001297,0.00000015,-0.00000093,-0.00000320,0.00000006,-0.00000034,
 0.00000106,0.00000272,0.00000236,0.,0.00000138,-0.00000207,0.00000007,
 -0.00000804,0.00000195,-0.00000287,0.00000018,0.00000306,0.00000089,-0
 .00000717,-0.00000316,0.00001086,-0.00000547,0.00000332,-0.00000687,0.
 00001179,-0.00000220,-0.00000188,-0.00009233,-0.00007392,-0.00007532,0
 .00006162,0.00020515,0.00006642,-0.00000656,-0.00000379,0.00003609,0.0
 0001833,-0.00000173,-0.00002588,-0.00000161,-0.00000656,0.00000985,0.0
 0377075,-0.00256360,0.00069911,-0.00092329,0.00109598,-0.00005633,0.12
 972425,0.12867603,0.00000247,-0.00000231,-0.00000355,-0.00000436,0.000
 01958,0.00000604,-0.00010493,0.00017981,0.00009158,0.00000854,-0.00008
 537,-0.00008331,0.00006147,-0.00013082,-0.00002374,0.00001709,0.000027
 82,0.00001606,0.00001019,0.00005812,-0.00000237,0.00003589,-0.00005334
 ,-0.00000370,-0.00002804,0.00001492,-0.00001533,-0.00002477,0.00001402
 ,0.00003942,0.00001943,-0.00000174,-0.00002586,0.00000352,0.00000130,-
 0.00001416,0.00000176,-0.00000125,-0.00000703,0.00005167,0.00009477,0.
 00006039,0.00001491,-0.00003635,-0.00001289,-0.00001229,0.00000974,0.0
 0000517,0.00000245,0.00000879,0.00001199,-0.00000820,-0.00000081,-0.00
 000652,-0.00102252,-0.00105321,-0.00013344,-0.00012125,0.00065072,-0.0
 0038010,0.00061376,0.00000942,0.00001082,0.00021792,-0.00081200,0.0007
 8000,-0.00060777,-0.00010237,-0.00020073,0.00017573,0.00004562,0.00005
 647,-0.00118359,0.00050889,-0.00148642,0.00978944,0.00392545,-0.047980
 01,-0.00000002,0.00000006,0.00000030,-0.00000018,-0.00000467,-0.000000
 32,0.00000278,-0.00000080,0.00000225,-0.00000676,0.00000572,-0.0000124
 5,0.00000826,0.00002356,0.00002008,0.00000550,-0.00001343,0.00000893,0
 .00002247,-0.00002798,-0.00001523,-0.00001152,-0.00001541,0.00000150,-
 0.00000212,-0.00001577,0.00000172,-0.00000445,0.00000566,0.00002793,-0
 .00000820,-0.00000449,0.00000436,0.00001602,-0.00000839,-0.00000468,-0
 .00000268,-0.00000235,0.00000246,-0.00000388,0.00000137,0.00000041,0.0
 0000453,-0.00000270,-0.00000269,-0.00000387,0.00000195,-0.00000063,-0.
 00000269,0.00000211,0.00000823,0.00000618,-0.00000266,-0.00000326,0.00
 001823,-0.00000902,0.00000202,0.00000675,-0.00000154,0.00000448,0.0000
 0153,0.00000066,-0.00001272,0.00000345,-0.00000037,-0.00000202,0.00000
 394,0.00000114,-0.00000293,0.00000488,-0.00000213,0.00000357,-0.000002
 63,-0.00000036,-0.00000011,-0.00000901,-0.00000827,0.00000374,0.000000
 18,0.00000449,-0.00000048,0.00001181,-0.00000008,-0.00000346,-0.000059
 48,-0.00011714,0.00004343,0.00021966,0.00034256,-0.00023489,-0.0000232
 0,-0.00001168,0.00008137,0.00000201,-0.00000112,-0.00001867,-0.0000114
 8,-0.00001118,0.00002059,-0.00049949,-0.00003402,0.00082530,0.00039435
 ,0.00038664,-0.00005694,-0.01077281,-0.00556193,0.04642524,0.00000132,
 -0.00000033,0.00000268,0.00000496,0.00000300,-0.00001621,0.00003090,-0
 .00002123,-0.00002265,-0.00000503,0.00000939,0.00001685,-0.00002487,0.
 00002866,0.00002154,0.00000905,-0.00000890,-0.00004821,-0.00000456,-0.
 00002337,0.00000971,-0.00000655,-0.00001843,-0.00001389,0.00009417,-0.
 00008647,-0.00001750,-0.00007915,-0.00000033,0.00018999,0.00001240,0.0
 0008697,-0.00017385,0.00000751,0.00002774,-0.00004629,-0.00000293,0.00
 000113,-0.00004951,-0.00010269,-0.00018969,0.00001678,0.00000248,0.000
 01997,-0.00003095,0.00001644,-0.00000831,-0.00000440,-0.00000753,-0.00
 000438,0.00001196,0.00000943,0.00001599,0.00002695,0.00108938,0.002681
 97,-0.00053497,-0.00008810,-0.00155398,0.00064561,-0.00080095,-0.00009
 926,0.00007860,0.00097139,-0.00255705,-0.00053532,0.00045466,-0.000193
 89,0.00001781,-0.00009402,0.00004002,-0.00001561,-0.00052234,0.0199859
 0,0.02411542,-0.04781367,-0.00992416,-0.01023655,0.00000055,-0.0000020
 8,0.00000003,-0.00000326,-0.00000174,-0.00000037,-0.00000210,0.0000038
 9,0.00000078,0.00000845,-0.00000003,0.00000091,0.00000086,0.00001268,0
 .00000398,-0.00000589,0.00000352,0.00001027,-0.00000042,-0.00000100,-0
 .00000851,0.00000403,0.00000585,-0.00000113,-0.00000266,0.00000364,0.0
 0000550,-0.00007091,-0.00011766,0.00004080,0.00008358,0.00003576,0.000
 04516,-0.00000421,0.00000057,-0.00000377,-0.00000621,-0.00000655,0.000
 00738,-0.00002114,0.00000347,-0.00000727,0.00000983,-0.00000798,-0.000
 00328,-0.00000086,0.00001979,-0.00000548,-0.00000324,-0.00000340,0.000
 00623,0.00000325,-0.00001289,-0.00000431,-0.00004706,0.00002414,0.0000
 1210,-0.00000241,0.00000014,0.00000277,0.00000151,0.00000327,-0.000001
 26,-0.00000477,-0.00000944,0.00000506,-0.00000294,0.00000644,0.0000017
 9,0.00000651,-0.00000197,0.00000008,0.00000303,-0.00001210,0.00000332,
 0.00002765,-0.00000044,-0.00003700,0.00001820,-0.00002083,0.00002031,-
 0.00003950,0.00000119,-0.00000015,0.00020710,0.00012239,0.00028322,-0.
 00013160,-0.00021220,-0.00010761,0.00001420,0.00000143,-0.00004371,-0.
 00002656,-0.00000774,0.00002909,0.00001009,0.00001528,-0.00003294,0.00
 122132,-0.00061773,0.00039570,-0.00407588,0.00366430,-0.00103873,-0.00
 005253,-0.01670266,-0.02182209,0.05100355,-0.00000216,0.00000647,0.000
 01151,0.00001130,-0.00002522,-0.00003040,0.00005038,-0.00013841,-0.000
 11453,0.00000525,0.00007100,0.00009664,-0.00003841,0.00009837,0.000046
 85,-0.00001984,-0.00001943,-0.00005366,0.00000602,-0.00003144,0.000009
 75,-0.00002199,0.00005480,0.00004522,-0.00006281,0.00005312,0.00004349
 ,0.00007881,-0.00001218,-0.00020593,-0.00002222,-0.00003887,0.00016392
 ,-0.00001001,-0.00001972,0.00004894,0.00000010,-0.00000103,0.00005256,
 0.00000446,0.00007728,-0.00000284,0.00000248,0.00000350,0.00003205,0.0
 0001100,-0.00000811,-0.00000449,0.00000395,-0.00000426,-0.00001210,-0.
 00000079,-0.00002181,-0.00002705,0.00104655,-0.00199533,0.00009989,-0.
 00106317,0.00056571,-0.00039831,-0.00035593,0.00026977,0.00013520,-0.0
 0127627,0.00201053,0.00060789,0.00029076,-0.00038170,-0.00003883,-0.00
 012477,0.00016425,-0.00000765,0.00071398,-0.01577527,-0.01739125,-0.00
 823654,-0.16224015,-0.13367732,-0.00000123,-0.00000135,0.00000097,0.00
 000085,0.00000920,-0.00000054,0.00000071,-0.00000324,-0.00000366,0.000
 00160,-0.00001210,0.00002079,0.00000368,0.00000360,0.00000528,-0.00000
 199,0.00000771,0.00000803,-0.00001812,0.00000845,-0.00001408,0.0000091
 4,0.00001445,0.00000232,-0.00000716,0.00000007,0.00000691,0.00004486,0
 .00007800,-0.00004482,-0.00006523,-0.00001304,-0.00004334,-0.00000668,
 0.00000703,0.00000870,0.00000702,0.00000716,-0.00001128,0.00001941,-0.
 00000637,0.00000625,-0.00001175,0.00001088,0.00000527,0.00000511,-0.00
 001943,0.00000581,0.00000353,0.00000232,-0.00001226,-0.00000706,0.0000
 1377,0.00000642,0.00000086,0.00000887,-0.00001685,-0.00000796,0.000003
 38,-0.00000527,-0.00000311,-0.00000565,0.00001965,-0.00000367,0.000009
 01,-0.00000275,-0.00000520,-0.00000575,0.00000280,-0.00000659,0.000003
 34,-0.00000196,-0.00000086,0.00001022,-0.00000359,-0.00001237,0.000013
 48,0.00002845,-0.00001606,0.00001771,-0.00001970,0.00001937,0.00000434
 ,0.00000347,0.00004592,0.00036598,0.00025452,-0.00016416,-0.00026357,0
 .00002843,0.00000919,0.00000339,-0.00005569,0.00000542,-0.00001032,0.0
 0001414,0.00003576,0.00002300,-0.00008816,-0.00051244,0.00084501,0.000
 63383,0.00355631,-0.00120721,0.00070798,0.00057680,-0.01036103,-0.0116
 3073,0.00490228,0.17513685,-0.00000365,-0.00000655,0.00000169,0.000017
 88,0.00002381,-0.00001336,0.00002764,0.00001029,0.00000676,-0.00001632
 ,-0.00001214,-0.00000644,-0.00003629,-0.00000637,-0.00000553,0.0000359
 7,0.00000157,0.00000887,-0.00000798,-0.00000043,-0.00000092,-0.0000002
 3,-0.00003832,0.00000793,-0.00000131,-0.00001080,0.00002631,-0.0000201
 2,0.00001387,-0.00000980,0.00001022,0.00001761,0.00000741,0.00000134,-
 0.00000471,-0.00000216,0.00000602,-0.00000161,0.00000108,0.00001830,0.
 00001791,0.00003444,0.00001289,-0.00002663,-0.00002953,0.00000005,0.00
 000731,0.00000776,-0.00000128,0.00000575,0.00001951,-0.00000747,-0.000
 00020,0.00000936,-0.00044530,0.00019158,-0.00032285,-0.00030739,0.0000
 3328,-0.00052152,0.00010922,-0.00011312,0.00015896,0.00068185,-0.00033
 862,0.00214385,-0.00000724,0.00040270,-0.00019528,0.00000712,-0.000094
 22,-0.00005269,0.00010763,0.00243276,-0.00007019,-0.00668724,-0.135296
 41,-0.20492844,-0.00000104,-0.00000198,0.00000280,0.00000162,-0.000001
 38,-0.00000090,-0.00000017,0.00000226,-0.00000225,-0.00000260,0.000004
 51,-0.00000303,-0.00000151,-0.00000476,-0.00000281,-0.00000381,-0.0000
 0122,-0.00000239,0.00000894,-0.00000049,0.00001148,-0.00000518,-0.0000
 0609,-0.00000171,0.00000364,0.00000543,-0.00000136,-0.00001875,0.00002
 596,-0.00000309,-0.00001386,-0.00000590,-0.00000056,-0.00000135,-0.000
 00448,-0.00000250,-0.00000351,-0.00000089,0.00000115,0.00000130,-0.000
 00112,0.00000326,0.00000031,-0.00000192,-0.00000264,0.00000036,-0.0000
 0177,0.00000338,0.00000028,0.00000286,-0.00000006,0.00000046,-0.000001
 04,-0.00000296,-0.00000499,-0.00001089,0.00000598,0.00000440,-0.000001
 72,0.00000718,0.00000100,0.00000142,-0.00000985,0.00000150,-0.00000109
 ,-0.00000219,0.00000036,-0.00000010,-0.00000330,0.00000696,-0.00000256
 ,0.00000589,-0.00000127,-0.00000028,-0.00000272,-0.00000054,-0.0000046
 4,-0.00000977,0.00000752,-0.00000150,0.00000630,0.00000018,-0.00000351
 ,-0.00000460,0.00009320,-0.00014905,-0.00042551,-0.00001349,-0.0001262
 7,0.00016339,-0.00000019,0.00000550,0.00000195,-0.00001507,0.00000348,
 0.00001332,-0.00001698,-0.00000442,0.00003686,0.00033505,-0.00021380,0
 .00004194,-0.00049710,0.00083798,0.00124546,-0.00024732,0.00310849,0.0
 0234156,0.00791291,0.14736846,0.21923928,0.00002193,0.00001235,-0.0000
 2261,-0.00008615,-0.00001383,0.00005094,-0.00015166,0.00006996,0.00001
 321,0.00004648,-0.00002973,-0.00000511,0.00010024,-0.00007041,0.000006
 57,-0.00002903,0.00001525,-0.00003513,0.00001108,0.00002700,0.00000685
 ,0.00005690,0.00017732,-0.00008567,0.00004784,-0.00003580,0.00001370,0
 .00003624,-0.00003758,-0.00005824,0.00002955,0.00002417,0.00006863,-0.
 00000434,0.00000303,0.00001125,-0.00000291,-0.00000169,0.00002119,-0.0
 0003020,-0.00019039,-0.00035385,-0.00011091,0.00009858,0.00008672,-0.0
 0001683,-0.00000778,-0.00000089,0.00000201,-0.00001935,-0.00006950,0.0
 0000120,0.00001637,-0.00000862,0.00033513,0.00136371,0.00232015,-0.000
 17842,-0.00035012,-0.00024305,0.00052958,-0.00012942,-0.00034308,-0.00
 457658,0.00519847,-0.00458640,-0.00053405,0.00003053,-0.00004914,0.000
 12860,0.00000107,0.00005194,0.00396941,0.00891214,-0.02207584,-0.04818
 602,-0.00305475,0.00779975,-0.00000345,0.00001056,-0.00000624,-0.00000
 159,0.00000017,0.00000113,0.00000251,-0.00000645,0.00000444,0.00000191
 ,0.00000188,-0.00001164,0.00001069,0.00002417,0.00001201,0.00000587,-0
 .00000736,0.00001389,0.00001056,-0.00001388,-0.00001753,-0.00000103,-0
 .00000789,-0.00000162,-0.00000400,-0.00000868,0.00000515,0.00000350,-0
 .00001933,-0.00003063,0.00000054,-0.00002194,-0.00002809,-0.00002230,0
 .00001286,0.00000544,0.00000489,0.00000183,-0.00000692,0.00000120,-0.0
 0000302,-0.00000029,-0.00000413,0.00000656,0.00000322,-0.00000032,-0.0
 0000475,-0.00000057,-0.00000060,-0.00000316,-0.00000277,-0.00000236,0.
 00000677,0.00000312,0.00000704,-0.00000736,-0.00000111,0.00000177,0.00
 000242,-0.00001015,0.00000259,0.00000062,0.00000253,0.00000183,0.00000
 114,0.00000148,0.00000152,-0.00000258,0.00000345,-0.00002349,0.0000099
 4,-0.00000962,0.00000261,0.00000196,0.00000245,-0.00000207,-0.00000229
 ,0.00000687,-0.00000588,-0.00000288,-0.00000917,0.00000517,0.00000099,
 0.00000180,-0.00002093,-0.00005416,-0.00006058,0.00014147,0.00016469,-
 0.00002600,-0.00001842,-0.00000161,0.00005040,0.00001135,-0.00000076,-
 0.00002015,-0.00001453,-0.00000797,0.00001436,0.00032679,-0.00122180,0
 .00014951,0.00096393,-0.00018973,0.00058503,0.00063803,-0.01307436,0.0
 2460553,-0.00127123,0.00061373,-0.00102557,0.04784150,-0.00001286,-0.0
 0000886,0.00001788,0.00006314,0.00002694,-0.00005213,0.00004823,0.0000
 5451,0.00001412,-0.00002809,-0.00003169,-0.00002448,-0.00004744,-0.000
 01993,-0.00000182,0.00004145,0.00000553,0.00000012,0.00000084,0.000003
 77,-0.00000044,-0.00002782,-0.00015343,0.00005410,-0.00005435,0.000036
 77,-0.00001908,-0.00004858,0.00003614,0.00006693,-0.00000735,0.0000094
 8,-0.00007780,0.00000569,0.00000073,-0.00001596,0.00000326,0.00000032,
 -0.00001732,0.00003564,0.00029000,0.00041118,0.00012113,-0.00012794,-0
 .00010037,0.00001596,0.00001078,0.00000389,-0.00000113,0.00002434,0.00
 008026,-0.00000370,-0.00002263,-0.00000455,-0.00037050,-0.00200381,-0.
 00222493,-0.00022795,0.00065995,0.00000227,-0.00022883,0.00014158,0.00
 028897,0.00509885,-0.00261843,0.00407637,0.00016155,-0.00028898,-0.000
 16170,-0.00002268,0.00009865,0.00000937,-0.00527098,-0.00867480,0.0165
 0387,-0.00200341,-0.11615764,0.11749757,0.00000182,-0.00000857,0.00000
 561,0.00000008,-0.00000168,-0.00000195,0.00000022,0.00000480,-0.000002
 49,-0.00000323,-0.00000032,0.00000560,0.00000553,0.00001201,0.00000352
 ,-0.00000380,-0.00000374,0.00000523,0.00000470,-0.00000460,-0.00000466
 ,-0.00000522,-0.00000066,0.00000146,-0.00000124,-0.00000130,0.00000202
 ,-0.00002216,0.00001963,0.00004635,-0.00001331,0.00000904,0.00002614,0
 .00003179,-0.00002692,-0.00000733,-0.00000728,-0.00000401,0.00000659,-
 0.00000320,0.00000249,0.00000125,0.00000633,-0.00000754,-0.00000533,-0
 .00000168,0.00000327,0.00000079,-0.00000292,0.00000515,0.00000752,0.00
 000742,-0.00000732,-0.00000543,-0.00000602,0.00001035,-0.00000499,0.00
 000054,-0.00000253,0.00001302,-0.00000296,-0.00000016,-0.00000751,-0.0
 0000130,-0.00000218,-0.00000208,-0.00000056,0.00000358,-0.00000464,0.0
 0002722,-0.00001172,0.00001089,-0.00000401,-0.00000342,-0.00000248,-0.
 00000369,0.00000047,-0.00000356,0.00000459,0.00000663,0.00000764,-0.00
 000054,0.00000096,-0.00000428,0.00001480,0.00011699,0.00009897,0.00001
 045,-0.00003702,-0.00002808,-0.00000007,-0.00000570,-0.00000014,-0.000
 01104,-0.00000284,0.00001118,0.00001584,0.00000540,-0.00003055,0.00013
 371,0.00066104,-0.00009630,-0.00063633,0.00013769,-0.00064656,0.000735
 45,-0.00860517,0.01342294,0.00069745,0.01263995,-0.01802178,0.00179254
 ,0.12380660,0.00000364,0.00000884,-0.00000225,-0.00002444,-0.00003671,
 0.00001888,0.00000037,-0.00008024,-0.00003978,0.00001743,0.00004934,0.
 00003702,0.00001810,0.00005379,0.00001446,-0.00004336,-0.00001298,-0.0
 0001160,0.00000373,-0.00001816,0.00000242,0.00001184,0.00005313,-0.000
 00886,-0.00003614,0.00002993,-0.00000835,0.00003629,-0.00002227,-0.000
 03025,-0.00000606,0.00001525,0.00002388,-0.00000436,0.00000594,0.00000
 530,-0.00000848,0.00000197,0.00000872,0.00004168,0.00000935,-0.0000602
 1,-0.00001116,0.00003459,0.00005545,-0.00000164,-0.00000945,-0.0000095
 1,0.00000427,-0.00000841,-0.00002816,0.00000322,-0.00000855,-0.0000234
 9,0.00075605,-0.00062053,0.00091015,-0.00058972,0.00016901,-0.00027268
 ,-0.00016196,0.00016622,-0.00008518,-0.00074657,0.00005921,0.00145460,
 0.00013545,-0.00017387,0.00002326,-0.00007596,0.00007567,0.00000046,0.
 00084441,-0.00073181,-0.00238414,0.00636120,0.11905126,-0.24771437,0.0
 0000116,0.00000278,-0.00000379,-0.00000129,0.00000355,0.00000180,-0.00
 000088,-0.00000359,0.00000213,0.00000453,-0.00000649,0.00000610,-0.000
 00190,-0.00000511,-0.00000145,0.00000192,0.00000697,-0.00000108,-0.000
 01525,0.00000788,-0.00000618,0.00000860,0.00000995,0.00000236,-0.00000
 345,-0.00000133,0.00000028,-0.00000737,-0.00003425,-0.00001892,0.00002
 802,0.00000770,-0.00001603,-0.00001963,0.00002038,0.00000804,0.0000070
 7,0.00000166,-0.00000584,-0.00000167,-0.00000136,-0.00000446,-0.000002
 81,0.00000662,0.00000587,0.00000158,0.00000071,-0.00000390,0.00000153,
 -0.00000538,-0.00000428,-0.00000418,0.00000528,0.00000642,0.00001501,0
 .00000367,-0.00000085,-0.00000659,0.00000171,-0.00001104,-0.00000032,-
 0.00000307,0.00001680,-0.00000166,0.00000398,0.00000253,-0.00000160,-0
 .00000193,0.00000545,-0.00001047,0.00000270,-0.00000860,0.00000151,0.0
 0000394,0.00000314,-0.00000550,0.00000770,0.00002086,-0.00001377,0.000
 00798,-0.00001778,0.00001142,0.00000426,0.00000496,0.00001657,0.000149
 02,0.00012723,-0.00009210,-0.00012133,-0.00000092,0.00000469,0.0000032
 0,-0.00003352,0.00000981,-0.00000644,0.00000412,0.00001685,0.00001250,
 -0.00004527,-0.00043028,0.00011561,0.00014687,-0.00044660,0.00030568,0
 .00025013,0.00020397,-0.00082941,-0.00015677,0.00092222,0.01338663,-0.
 01892222,-0.00671696,-0.13112289,0.26677202\\0.00000863,0.00000036,0.0
 0000180,-0.00000124,0.00001142,-0.00000284,-0.00000397,-0.00000530,-0.
 00000069,-0.00000005,0.00000134,-0.00000400,0.00000026,0.00000201,0.00
 000875,0.00000049,0.00000086,-0.00000731,0.00000017,-0.00000044,0.0000
 0451,0.00000389,0.00000185,-0.00000059,-0.00000266,0.00000163,-0.00000
 074,-0.00000250,0.00000213,-0.00000095,-0.00000200,0.00000125,-0.00000
 184,0.00000249,0.00000221,0.00000137,-0.00000290,-0.00000097,0.0000020
 3,0.00000699,-0.00000795,-0.00000171,0.00000131,-0.00000626,-0.0000020
 9,-0.00000378,0.00000497,-0.00000288,0.00000044,-0.00000525,-0.0000027
 7,-0.00000231,0.00000074,-0.00000087,0.00000574,0.00000502,0.00000005,
 0.00000010,-0.00000249,-0.00000117,-0.00000630,-0.00000630,-0.00000193
 ,-0.00000187,-0.00000204,0.00000064,-0.00000446,0.00000580,-0.00000125
 ,0.00000004,-0.00000080,0.00000179,-0.00000283,0.00000107,0.00000208,-
 0.00000357,-0.00000018,0.00000543,-0.00000186,-0.00000015,0.00000077,0
 .00000003,-0.00000331,-0.00000350,-0.00000318,-0.00000115,0.00000020,-
 0.00000036,-0.00000369,-0.00000449,-0.00000118,-0.00000077,0.00000142,
 0.00000074,-0.00000060,0.00000076,0.00000106,0.00000162,-0.00000017,0.
 00000199,-0.00000010,0.00000231,0.00000007,0.00000008,0.00000122,-0.00
 000017,0.00000087,-0.00000054,0.00000078,-0.00000153,-0.00000024,-0.00
 000115,0.00000149,-0.00000026,0.00000011,-0.00000009,-0.00000037,0.000
 00181,-0.00000067,-0.00000299,-0.00000191,0.00000062,-0.00000157,0.000
 00001,-0.00000004,-0.00000450,-0.00000039,0.00000048,-0.00000084,0.000
 00010,0.00000133,-0.00000158,-0.00000158,0.00000363,0.00000066,0.00000
 140,0.00000030,-0.00000164,0.00000053,-0.00000190,0.00000316,0.0000007
 9,-0.00000376,-0.00000262,0.00000132,-0.00000053,-0.00000224,0.0000016
 9,-0.00000039,-0.00000122,0.00000123,0.00000085,0.00000225,0.00000041,
 0.00000004,0.00000156,0.00000139,-0.00000038,0.00000069,0.00000005,-0.
 00000272,0.00000082,-0.00000021,-0.00000104,0.00000115,0.00000408,-0.0
 0000019,0.00000624,0.00000125,-0.00000257,-0.00000036,0.00000032,-0.00
 000134,0.00000126,-0.00000083,0.00000032,0.00000337,0.00000058,0.00000
 170,0.00000109,0.00000034,0.00000230,0.00000098,0.00000071,0.00000269,
 0.00000182,-0.00000163,0.00000358,0.00000129,0.00000152,0.00000031,0.0
 0000129\\\@
 The archive entry for this job was punched.


 IF MATHEMATICALLY YOU END UP WITH THE INCORRECT ANSWER,
 TRY MULTIPLYING BY THE PAGE NUMBER.
 Job cpu time:       6 days 13 hours 55 minutes  2.9 seconds.
 Elapsed time:       0 days  7 hours 54 minutes 15.0 seconds.
 File lengths (MBytes):  RWF=   4862 Int=      0 D2E=      0 Chk=     88 Scr=      1
 Normal termination of Gaussian 16 at Wed Jan  8 13:56:47 2025.
