 Entering Gaussian System, Link 0=g16
 Input=gjfs/data_set_12-nBA_dormant-28.gjf
 Output=gjfs/data_set_12-nBA_dormant-28.log
 Initial command:
 /usr/local/intel/g16/l1.exe "/scr/Gau-4149443.inp" -scrdir="/scr/"
 Entering Link 1 = /usr/local/intel/g16/l1.exe PID=   4149445.
  
 Copyright (c) 1988-2019, Gaussian, Inc.  All Rights Reserved.
  
 This is part of the Gaussian(R) 16 program.  It is based on
 the Gaussian(R) 09 system (copyright 2009, Gaussian, Inc.),
 the Gaussian(R) 03 system (copyright 2003, Gaussian, Inc.),
 the Gaussian(R) 98 system (copyright 1998, Gaussian, Inc.),
 the Gaussian(R) 94 system (copyright 1995, Gaussian, Inc.),
 the Gaussian 92(TM) system (copyright 1992, Gaussian, Inc.),
 the Gaussian 90(TM) system (copyright 1990, Gaussian, Inc.),
 the Gaussian 88(TM) system (copyright 1988, Gaussian, Inc.),
 the Gaussian 86(TM) system (copyright 1986, Carnegie Mellon
 University), and the Gaussian 82(TM) system (copyright 1983,
 Carnegie Mellon University). Gaussian is a federally registered
 trademark of Gaussian, Inc.
  
 This software contains proprietary and confidential information,
 including trade secrets, belonging to Gaussian, Inc.
  
 This software is provided under written license and may be
 used, copied, transmitted, or stored only in accord with that
 written license.
  
 The following legend is applicable only to US Government
 contracts under FAR:
  
                    RESTRICTED RIGHTS LEGEND
  
 Use, reproduction and disclosure by the US Government is
 subject to restrictions as set forth in subparagraphs (a)
 and (c) of the Commercial Computer Software - Restricted
 Rights clause in FAR 52.227-19.
  
 Gaussian, Inc.
 340 Quinnipiac St., Bldg. 40, Wallingford CT 06492
  
  
 ---------------------------------------------------------------
 Warning -- This program may not be used in any manner that
 competes with the business of Gaussian, Inc. or will provide
 assistance to any competitor of Gaussian, Inc.  The licensee
 of this program is prohibited from giving any competitor of
 Gaussian, Inc. access to this program.  By using this program,
 the user acknowledges that Gaussian, Inc. is engaged in the
 business of creating and licensing software in the field of
 computational chemistry and represents and warrants to the
 licensee that it is not a competitor of Gaussian, Inc. and that
 it will not use this program in any manner prohibited above.
 ---------------------------------------------------------------
  

 Cite this work as:
 Gaussian 16, Revision C.01,
 M. J. Frisch, G. W. Trucks, H. B. Schlegel, G. E. Scuseria, 
 M. A. Robb, J. R. Cheeseman, G. Scalmani, V. Barone, 
 G. A. Petersson, H. Nakatsuji, X. Li, M. Caricato, A. V. Marenich, 
 J. Bloino, B. G. Janesko, R. Gomperts, B. Mennucci, H. P. Hratchian, 
 J. V. Ortiz, A. F. Izmaylov, J. L. Sonnenberg, D. Williams-Young, 
 F. Ding, F. Lipparini, F. Egidi, J. Goings, B. Peng, A. Petrone, 
 T. Henderson, D. Ranasinghe, V. G. Zakrzewski, J. Gao, N. Rega, 
 G. Zheng, W. Liang, M. Hada, M. Ehara, K. Toyota, R. Fukuda, 
 J. Hasegawa, M. Ishida, T. Nakajima, Y. Honda, O. Kitao, H. Nakai, 
 T. Vreven, K. Throssell, J. A. Montgomery, Jr., J. E. Peralta, 
 F. Ogliaro, M. J. Bearpark, J. J. Heyd, E. N. Brothers, K. N. Kudin, 
 V. N. Staroverov, T. A. Keith, R. Kobayashi, J. Normand, 
 K. Raghavachari, A. P. Rendell, J. C. Burant, S. S. Iyengar, 
 J. Tomasi, M. Cossi, J. M. Millam, M. Klene, C. Adamo, R. Cammi, 
 J. W. Ochterski, R. L. Martin, K. Morokuma, O. Farkas, 
 J. B. Foresman, and D. J. Fox, Gaussian, Inc., Wallingford CT, 2019.
 
 ******************************************
 Gaussian 16:  ES64L-G16RevC.01  3-Jul-2019
                 7-Jan-2025 
 ******************************************
 %nprocshared=20
 Will use up to   20 processors via shared memory.
 %mem=30GB
 %chk=outputs/data_set_12-nBA_dormant-28.chk
 ----------------------------------
 #p M062X/DEF2TZVP opt freq pop=NBO
 ----------------------------------
 1/18=20,19=15,26=3,38=1/1,3;
 2/9=110,12=2,17=6,18=5,40=1/2;
 3/5=44,7=101,11=2,25=1,30=1,71=1,74=-55/1,2,3;
 4//1;
 5/5=2,38=5/2;
 6/7=2,8=2,9=2,10=2,28=1,40=1/1,7;
 7//1,2,3,16;
 1/18=20,19=15,26=3/3(2);
 2/9=110/2;
 99//99;
 2/9=110/2;
 3/5=44,7=101,11=2,25=1,30=1,71=1,74=-55/1,2,3;
 4/5=5,16=3,69=1/1;
 5/5=2,38=5/2;
 7//1,2,3,16;
 1/18=20,19=15,26=3/3(-5);
 2/9=110/2;
 6/7=2,8=2,9=2,10=2,19=2,28=1,40=1/1,7;
 99/9=1/99;
 Leave Link    1 at Tue Jan  7 18:30:16 2025, MaxMem=  4026531840 cpu:               0.9 elap:               0.1
 (Enter /usr/local/intel/g16/l101.exe)
 --------------------------
 data_set_12-nBA_dormant-28
 --------------------------
 Symbolic Z-matrix:
 Charge =  0 Multiplicity = 1
 C                    -1.26976   2.35368   1.38754 
 C                    -1.45028   0.97297   0.77362 
 C                    -2.74766   0.85874  -0.02167 
 O                    -3.26925   1.76269  -0.68036 
 O                    -3.27204  -0.39984   0.07195 
 C                    -4.47152  -0.70399  -0.72761 
 C                    -4.77854  -2.17753  -0.51212 
 O                    -0.43715   0.63956  -0.23289 
 N                     0.84643   0.3272    0.39197 
 C                     1.00892  -1.17172   0.61544 
 C                     2.28349  -1.73805  -0.06073 
 C                     3.55045  -0.89334   0.10704 
 C                     3.24114   0.60981   0.23617 
 C                     1.90232   1.05656  -0.3852 
 C                     1.73442   2.56496  -0.12367 
 C                     1.83837   0.82613  -1.91493 
 C                    -0.18214  -1.97707   0.05567 
 C                     1.1048   -1.37119   2.14567 
 O                     4.35937  -1.19541  -1.07355 
 H                    -2.05061   2.53936   2.1333 
 H                    -1.3345    3.12776   0.61944 
 H                    -0.29598   2.40169   1.87885 
 H                    -1.45176   0.20052   1.5474 
 H                    -4.25451  -0.47198  -1.77444 
 H                    -5.28485  -0.05353  -0.3918 
 H                    -3.93611  -2.79543  -0.8347 
 H                    -5.66265  -2.46098  -1.09237 
 H                    -4.97475  -2.38141   0.54403 
 H                     2.11087  -1.85565  -1.13294 
 H                     2.45797  -2.74452   0.33402 
 H                     4.10669  -1.20961   1.00086 
 H                     4.04993   1.1927   -0.22284 
 H                     3.21337   0.87827   1.29977 
 H                     1.76609   2.77719   0.94981 
 H                     0.783     2.92118  -0.52574 
 H                     2.54377   3.11886  -0.61358 
 H                     2.06031  -0.20064  -2.20518 
 H                     2.57487   1.46983  -2.4093 
 H                     0.84312   1.09262  -2.28054 
 H                     0.02958  -3.04428   0.19126 
 H                    -0.32099  -1.77687  -1.00973 
 H                    -1.12308  -1.75118   0.56205 
 H                     1.96692  -0.83409   2.55583 
 H                     1.2044   -2.43532   2.39311 
 H                     0.20864  -0.98144   2.63858 
 H                     5.21378  -0.72922  -1.03151 
 
 ITRead=  0  0  0  0  0  0  0  0  0  0  0  0  0  0  0  0  0  0  0  0
 ITRead=  0  0  0  0  0  0  0  0  0  0  0  0  0  0  0  0  0  0  0  0
 ITRead=  0  0  0  0  0  0
 MicOpt= -1 -1 -1 -1 -1 -1 -1 -1 -1 -1 -1 -1 -1 -1 -1 -1 -1 -1 -1 -1
 MicOpt= -1 -1 -1 -1 -1 -1 -1 -1 -1 -1 -1 -1 -1 -1 -1 -1 -1 -1 -1 -1
 MicOpt= -1 -1 -1 -1 -1 -1
 NAtoms=     46 NQM=       46 NQMF=       0 NMMI=      0 NMMIF=      0
                NMic=       0 NMicF=      0.
                    Isotopes and Nuclear Properties:
 (Nuclear quadrupole moments (NQMom) in fm**2, nuclear magnetic moments (NMagM)
  in nuclear magnetons)

  Atom         1           2           3           4           5           6           7           8           9          10
 IAtWgt=          12          12          12          16          16          12          12          16          14          12
 AtmWgt=  12.0000000  12.0000000  12.0000000  15.9949146  15.9949146  12.0000000  12.0000000  15.9949146  14.0030740  12.0000000
 NucSpn=           0           0           0           0           0           0           0           0           2           0
 AtZEff=  -0.0000000  -0.0000000  -0.0000000  -0.0000000  -0.0000000  -0.0000000  -0.0000000  -0.0000000  -0.0000000  -0.0000000
 NQMom=    0.0000000   0.0000000   0.0000000   0.0000000   0.0000000   0.0000000   0.0000000   0.0000000   2.0440000   0.0000000
 NMagM=    0.0000000   0.0000000   0.0000000   0.0000000   0.0000000   0.0000000   0.0000000   0.0000000   0.4037610   0.0000000
 AtZNuc=   6.0000000   6.0000000   6.0000000   8.0000000   8.0000000   6.0000000   6.0000000   8.0000000   7.0000000   6.0000000

  Atom        11          12          13          14          15          16          17          18          19          20
 IAtWgt=          12          12          12          12          12          12          12          12          16           1
 AtmWgt=  12.0000000  12.0000000  12.0000000  12.0000000  12.0000000  12.0000000  12.0000000  12.0000000  15.9949146   1.0078250
 NucSpn=           0           0           0           0           0           0           0           0           0           1
 AtZEff=  -0.0000000  -0.0000000  -0.0000000  -0.0000000  -0.0000000  -0.0000000  -0.0000000  -0.0000000  -0.0000000  -0.0000000
 NQMom=    0.0000000   0.0000000   0.0000000   0.0000000   0.0000000   0.0000000   0.0000000   0.0000000   0.0000000   0.0000000
 NMagM=    0.0000000   0.0000000   0.0000000   0.0000000   0.0000000   0.0000000   0.0000000   0.0000000   0.0000000   2.7928460
 AtZNuc=   6.0000000   6.0000000   6.0000000   6.0000000   6.0000000   6.0000000   6.0000000   6.0000000   8.0000000   1.0000000

  Atom        21          22          23          24          25          26          27          28          29          30
 IAtWgt=           1           1           1           1           1           1           1           1           1           1
 AtmWgt=   1.0078250   1.0078250   1.0078250   1.0078250   1.0078250   1.0078250   1.0078250   1.0078250   1.0078250   1.0078250
 NucSpn=           1           1           1           1           1           1           1           1           1           1
 AtZEff=  -0.0000000  -0.0000000  -0.0000000  -0.0000000  -0.0000000  -0.0000000  -0.0000000  -0.0000000  -0.0000000  -0.0000000
 NQMom=    0.0000000   0.0000000   0.0000000   0.0000000   0.0000000   0.0000000   0.0000000   0.0000000   0.0000000   0.0000000
 NMagM=    2.7928460   2.7928460   2.7928460   2.7928460   2.7928460   2.7928460   2.7928460   2.7928460   2.7928460   2.7928460
 AtZNuc=   1.0000000   1.0000000   1.0000000   1.0000000   1.0000000   1.0000000   1.0000000   1.0000000   1.0000000   1.0000000

  Atom        31          32          33          34          35          36          37          38          39          40
 IAtWgt=           1           1           1           1           1           1           1           1           1           1
 AtmWgt=   1.0078250   1.0078250   1.0078250   1.0078250   1.0078250   1.0078250   1.0078250   1.0078250   1.0078250   1.0078250
 NucSpn=           1           1           1           1           1           1           1           1           1           1
 AtZEff=  -0.0000000  -0.0000000  -0.0000000  -0.0000000  -0.0000000  -0.0000000  -0.0000000  -0.0000000  -0.0000000  -0.0000000
 NQMom=    0.0000000   0.0000000   0.0000000   0.0000000   0.0000000   0.0000000   0.0000000   0.0000000   0.0000000   0.0000000
 NMagM=    2.7928460   2.7928460   2.7928460   2.7928460   2.7928460   2.7928460   2.7928460   2.7928460   2.7928460   2.7928460
 AtZNuc=   1.0000000   1.0000000   1.0000000   1.0000000   1.0000000   1.0000000   1.0000000   1.0000000   1.0000000   1.0000000

  Atom        41          42          43          44          45          46
 IAtWgt=           1           1           1           1           1           1
 AtmWgt=   1.0078250   1.0078250   1.0078250   1.0078250   1.0078250   1.0078250
 NucSpn=           1           1           1           1           1           1
 AtZEff=  -0.0000000  -0.0000000  -0.0000000  -0.0000000  -0.0000000  -0.0000000
 NQMom=    0.0000000   0.0000000   0.0000000   0.0000000   0.0000000   0.0000000
 NMagM=    2.7928460   2.7928460   2.7928460   2.7928460   2.7928460   2.7928460
 AtZNuc=   1.0000000   1.0000000   1.0000000   1.0000000   1.0000000   1.0000000
 Leave Link  101 at Tue Jan  7 18:30:17 2025, MaxMem=  4026531840 cpu:              23.1 elap:               1.2
 (Enter /usr/local/intel/g16/l103.exe)

 GradGradGradGradGradGradGradGradGradGradGradGradGradGradGradGradGradGrad
 Berny optimization.
 Initialization pass.
                           ----------------------------
                           !    Initial Parameters    !
                           ! (Angstroms and Degrees)  !
 --------------------------                            --------------------------
 ! Name  Definition              Value          Derivative Info.                !
 --------------------------------------------------------------------------------
 ! R1    R(1,2)                  1.5218         estimate D2E/DX2                !
 ! R2    R(1,20)                 1.0956         estimate D2E/DX2                !
 ! R3    R(1,21)                 1.0924         estimate D2E/DX2                !
 ! R4    R(1,22)                 1.0918         estimate D2E/DX2                !
 ! R5    R(2,3)                  1.526          estimate D2E/DX2                !
 ! R6    R(2,8)                  1.4665         estimate D2E/DX2                !
 ! R7    R(2,23)                 1.0934         estimate D2E/DX2                !
 ! R8    R(3,4)                  1.2341         estimate D2E/DX2                !
 ! R9    R(3,5)                  1.3667         estimate D2E/DX2                !
 ! R10   R(5,6)                  1.4733         estimate D2E/DX2                !
 ! R11   R(6,7)                  1.5205         estimate D2E/DX2                !
 ! R12   R(6,24)                 1.094          estimate D2E/DX2                !
 ! R13   R(6,25)                 1.0942         estimate D2E/DX2                !
 ! R14   R(7,26)                 1.0934         estimate D2E/DX2                !
 ! R15   R(7,27)                 1.0948         estimate D2E/DX2                !
 ! R16   R(7,28)                 1.0934         estimate D2E/DX2                !
 ! R17   R(8,9)                  1.4614         estimate D2E/DX2                !
 ! R18   R(9,10)                 1.5242         estimate D2E/DX2                !
 ! R19   R(9,14)                 1.5003         estimate D2E/DX2                !
 ! R20   R(10,11)                1.55           estimate D2E/DX2                !
 ! R21   R(10,17)                1.5429         estimate D2E/DX2                !
 ! R22   R(10,18)                1.5461         estimate D2E/DX2                !
 ! R23   R(11,12)                1.5319         estimate D2E/DX2                !
 ! R24   R(11,29)                1.0924         estimate D2E/DX2                !
 ! R25   R(11,30)                1.0951         estimate D2E/DX2                !
 ! R26   R(12,13)                1.5401         estimate D2E/DX2                !
 ! R27   R(12,19)                1.4627         estimate D2E/DX2                !
 ! R28   R(12,31)                1.0992         estimate D2E/DX2                !
 ! R29   R(13,14)                1.5421         estimate D2E/DX2                !
 ! R30   R(13,32)                1.0975         estimate D2E/DX2                !
 ! R31   R(13,33)                1.0973         estimate D2E/DX2                !
 ! R32   R(14,15)                1.5401         estimate D2E/DX2                !
 ! R33   R(14,16)                1.5483         estimate D2E/DX2                !
 ! R34   R(15,34)                1.0947         estimate D2E/DX2                !
 ! R35   R(15,35)                1.0926         estimate D2E/DX2                !
 ! R36   R(15,36)                1.0963         estimate D2E/DX2                !
 ! R37   R(16,37)                1.0898         estimate D2E/DX2                !
 ! R38   R(16,38)                1.096          estimate D2E/DX2                !
 ! R39   R(16,39)                1.0933         estimate D2E/DX2                !
 ! R40   R(17,40)                1.0964         estimate D2E/DX2                !
 ! R41   R(17,41)                1.0929         estimate D2E/DX2                !
 ! R42   R(17,42)                1.0922         estimate D2E/DX2                !
 ! R43   R(18,43)                1.0954         estimate D2E/DX2                !
 ! R44   R(18,44)                1.0971         estimate D2E/DX2                !
 ! R45   R(18,45)                1.0945         estimate D2E/DX2                !
 ! R46   R(19,46)                0.9742         estimate D2E/DX2                !
 ! A1    A(2,1,20)             110.1101         estimate D2E/DX2                !
 ! A2    A(2,1,21)             110.6228         estimate D2E/DX2                !
 ! A3    A(2,1,22)             109.1015         estimate D2E/DX2                !
 ! A4    A(20,1,21)            108.4384         estimate D2E/DX2                !
 ! A5    A(20,1,22)            108.779          estimate D2E/DX2                !
 ! A6    A(21,1,22)            109.7619         estimate D2E/DX2                !
 ! A7    A(1,2,3)              112.2721         estimate D2E/DX2                !
 ! A8    A(1,2,8)              113.6533         estimate D2E/DX2                !
 ! A9    A(1,2,23)             110.8333         estimate D2E/DX2                !
 ! A10   A(3,2,8)              102.2774         estimate D2E/DX2                !
 ! A11   A(3,2,23)             108.3486         estimate D2E/DX2                !
 ! A12   A(8,2,23)             109.0282         estimate D2E/DX2                !
 ! A13   A(2,3,4)              125.6371         estimate D2E/DX2                !
 ! A14   A(2,3,5)              111.0659         estimate D2E/DX2                !
 ! A15   A(4,3,5)              123.2939         estimate D2E/DX2                !
 ! A16   A(3,5,6)              117.7316         estimate D2E/DX2                !
 ! A17   A(5,6,7)              106.7106         estimate D2E/DX2                !
 ! A18   A(5,6,24)             108.3022         estimate D2E/DX2                !
 ! A19   A(5,6,25)             108.4135         estimate D2E/DX2                !
 ! A20   A(7,6,24)             112.408          estimate D2E/DX2                !
 ! A21   A(7,6,25)             112.4886         estimate D2E/DX2                !
 ! A22   A(24,6,25)            108.3632         estimate D2E/DX2                !
 ! A23   A(6,7,26)             110.5043         estimate D2E/DX2                !
 ! A24   A(6,7,27)             109.8058         estimate D2E/DX2                !
 ! A25   A(6,7,28)             110.7218         estimate D2E/DX2                !
 ! A26   A(26,7,27)            108.6324         estimate D2E/DX2                !
 ! A27   A(26,7,28)            108.5334         estimate D2E/DX2                !
 ! A28   A(27,7,28)            108.587          estimate D2E/DX2                !
 ! A29   A(2,8,9)              111.2188         estimate D2E/DX2                !
 ! A30   A(8,9,10)             111.5022         estimate D2E/DX2                !
 ! A31   A(8,9,14)             107.0232         estimate D2E/DX2                !
 ! A32   A(10,9,14)            118.6208         estimate D2E/DX2                !
 ! A33   A(9,10,11)            112.5215         estimate D2E/DX2                !
 ! A34   A(9,10,17)            112.1992         estimate D2E/DX2                !
 ! A35   A(9,10,18)            106.176          estimate D2E/DX2                !
 ! A36   A(11,10,17)           106.607          estimate D2E/DX2                !
 ! A37   A(11,10,18)           109.4882         estimate D2E/DX2                !
 ! A38   A(17,10,18)           109.8529         estimate D2E/DX2                !
 ! A39   A(10,11,12)           115.5203         estimate D2E/DX2                !
 ! A40   A(10,11,29)           109.7291         estimate D2E/DX2                !
 ! A41   A(10,11,30)           108.0334         estimate D2E/DX2                !
 ! A42   A(12,11,29)           107.3099         estimate D2E/DX2                !
 ! A43   A(12,11,30)           109.6051         estimate D2E/DX2                !
 ! A44   A(29,11,30)           106.2631         estimate D2E/DX2                !
 ! A45   A(11,12,13)           112.4118         estimate D2E/DX2                !
 ! A46   A(11,12,19)           104.7806         estimate D2E/DX2                !
 ! A47   A(11,12,31)           110.4192         estimate D2E/DX2                !
 ! A48   A(13,12,19)           112.3537         estimate D2E/DX2                !
 ! A49   A(13,12,31)           108.3166         estimate D2E/DX2                !
 ! A50   A(19,12,31)           108.4841         estimate D2E/DX2                !
 ! A51   A(12,13,14)           115.0453         estimate D2E/DX2                !
 ! A52   A(12,13,32)           109.5901         estimate D2E/DX2                !
 ! A53   A(12,13,33)           108.9739         estimate D2E/DX2                !
 ! A54   A(14,13,32)           108.5056         estimate D2E/DX2                !
 ! A55   A(14,13,33)           107.3202         estimate D2E/DX2                !
 ! A56   A(32,13,33)           107.1027         estimate D2E/DX2                !
 ! A57   A(9,14,13)            105.156          estimate D2E/DX2                !
 ! A58   A(9,14,15)            108.1465         estimate D2E/DX2                !
 ! A59   A(9,14,16)            114.2283         estimate D2E/DX2                !
 ! A60   A(13,14,15)           108.0571         estimate D2E/DX2                !
 ! A61   A(13,14,16)           113.0072         estimate D2E/DX2                !
 ! A62   A(15,14,16)           108.0013         estimate D2E/DX2                !
 ! A63   A(14,15,34)           110.6861         estimate D2E/DX2                !
 ! A64   A(14,15,35)           110.5952         estimate D2E/DX2                !
 ! A65   A(14,15,36)           109.7839         estimate D2E/DX2                !
 ! A66   A(34,15,35)           108.835          estimate D2E/DX2                !
 ! A67   A(34,15,36)           108.5968         estimate D2E/DX2                !
 ! A68   A(35,15,36)           108.2821         estimate D2E/DX2                !
 ! A69   A(14,16,37)           113.2615         estimate D2E/DX2                !
 ! A70   A(14,16,38)           109.299          estimate D2E/DX2                !
 ! A71   A(14,16,39)           109.3744         estimate D2E/DX2                !
 ! A72   A(37,16,38)           107.2382         estimate D2E/DX2                !
 ! A73   A(37,16,39)           109.0248         estimate D2E/DX2                !
 ! A74   A(38,16,39)           108.5263         estimate D2E/DX2                !
 ! A75   A(10,17,40)           108.3078         estimate D2E/DX2                !
 ! A76   A(10,17,41)           110.8631         estimate D2E/DX2                !
 ! A77   A(10,17,42)           112.886          estimate D2E/DX2                !
 ! A78   A(40,17,41)           108.868          estimate D2E/DX2                !
 ! A79   A(40,17,42)           108.0798         estimate D2E/DX2                !
 ! A80   A(41,17,42)           107.7369         estimate D2E/DX2                !
 ! A81   A(10,18,43)           110.8625         estimate D2E/DX2                !
 ! A82   A(10,18,44)           110.732          estimate D2E/DX2                !
 ! A83   A(10,18,45)           110.4256         estimate D2E/DX2                !
 ! A84   A(43,18,44)           108.6445         estimate D2E/DX2                !
 ! A85   A(43,18,45)           107.5282         estimate D2E/DX2                !
 ! A86   A(44,18,45)           108.5516         estimate D2E/DX2                !
 ! A87   A(12,19,46)           110.5717         estimate D2E/DX2                !
 ! D1    D(20,1,2,3)            64.8861         estimate D2E/DX2                !
 ! D2    D(20,1,2,8)          -179.6304         estimate D2E/DX2                !
 ! D3    D(20,1,2,23)          -56.4343         estimate D2E/DX2                !
 ! D4    D(21,1,2,3)           -54.96           estimate D2E/DX2                !
 ! D5    D(21,1,2,8)            60.5234         estimate D2E/DX2                !
 ! D6    D(21,1,2,23)         -176.2805         estimate D2E/DX2                !
 ! D7    D(22,1,2,3)          -175.7998         estimate D2E/DX2                !
 ! D8    D(22,1,2,8)           -60.3164         estimate D2E/DX2                !
 ! D9    D(22,1,2,23)           62.8797         estimate D2E/DX2                !
 ! D10   D(1,2,3,4)             34.4847         estimate D2E/DX2                !
 ! D11   D(1,2,3,5)           -146.1515         estimate D2E/DX2                !
 ! D12   D(8,2,3,4)            -87.7117         estimate D2E/DX2                !
 ! D13   D(8,2,3,5)             91.6521         estimate D2E/DX2                !
 ! D14   D(23,2,3,4)           157.219          estimate D2E/DX2                !
 ! D15   D(23,2,3,5)           -23.4172         estimate D2E/DX2                !
 ! D16   D(1,2,8,9)             74.5159         estimate D2E/DX2                !
 ! D17   D(3,2,8,9)           -164.2345         estimate D2E/DX2                !
 ! D18   D(23,2,8,9)           -49.6622         estimate D2E/DX2                !
 ! D19   D(2,3,5,6)           -175.2981         estimate D2E/DX2                !
 ! D20   D(4,3,5,6)              4.0833         estimate D2E/DX2                !
 ! D21   D(3,5,6,7)            176.1416         estimate D2E/DX2                !
 ! D22   D(3,5,6,24)            54.9089         estimate D2E/DX2                !
 ! D23   D(3,5,6,25)           -62.4683         estimate D2E/DX2                !
 ! D24   D(5,6,7,26)           -59.8031         estimate D2E/DX2                !
 ! D25   D(5,6,7,27)          -179.6201         estimate D2E/DX2                !
 ! D26   D(5,6,7,28)            60.482          estimate D2E/DX2                !
 ! D27   D(24,6,7,26)           58.7807         estimate D2E/DX2                !
 ! D28   D(24,6,7,27)          -61.0363         estimate D2E/DX2                !
 ! D29   D(24,6,7,28)          179.0658         estimate D2E/DX2                !
 ! D30   D(25,6,7,26)         -178.5687         estimate D2E/DX2                !
 ! D31   D(25,6,7,27)           61.6143         estimate D2E/DX2                !
 ! D32   D(25,6,7,28)          -58.2836         estimate D2E/DX2                !
 ! D33   D(2,8,9,10)            94.2282         estimate D2E/DX2                !
 ! D34   D(2,8,9,14)          -134.5443         estimate D2E/DX2                !
 ! D35   D(8,9,10,11)          123.4266         estimate D2E/DX2                !
 ! D36   D(8,9,10,17)            3.2026         estimate D2E/DX2                !
 ! D37   D(8,9,10,18)         -116.8164         estimate D2E/DX2                !
 ! D38   D(14,9,10,11)          -1.5636         estimate D2E/DX2                !
 ! D39   D(14,9,10,17)        -121.7876         estimate D2E/DX2                !
 ! D40   D(14,9,10,18)         118.1935         estimate D2E/DX2                !
 ! D41   D(8,9,14,13)         -175.609          estimate D2E/DX2                !
 ! D42   D(8,9,14,15)           69.1314         estimate D2E/DX2                !
 ! D43   D(8,9,14,16)          -51.1414         estimate D2E/DX2                !
 ! D44   D(10,9,14,13)         -48.4687         estimate D2E/DX2                !
 ! D45   D(10,9,14,15)        -163.7284         estimate D2E/DX2                !
 ! D46   D(10,9,14,16)          75.9988         estimate D2E/DX2                !
 ! D47   D(9,10,11,12)          43.6616         estimate D2E/DX2                !
 ! D48   D(9,10,11,29)         -77.7701         estimate D2E/DX2                !
 ! D49   D(9,10,11,30)         166.7852         estimate D2E/DX2                !
 ! D50   D(17,10,11,12)        167.0625         estimate D2E/DX2                !
 ! D51   D(17,10,11,29)         45.6307         estimate D2E/DX2                !
 ! D52   D(17,10,11,30)        -69.8139         estimate D2E/DX2                !
 ! D53   D(18,10,11,12)        -74.156          estimate D2E/DX2                !
 ! D54   D(18,10,11,29)        164.4123         estimate D2E/DX2                !
 ! D55   D(18,10,11,30)         48.9677         estimate D2E/DX2                !
 ! D56   D(9,10,17,40)         176.3848         estimate D2E/DX2                !
 ! D57   D(9,10,17,41)          57.0025         estimate D2E/DX2                !
 ! D58   D(9,10,17,42)         -63.9792         estimate D2E/DX2                !
 ! D59   D(11,10,17,40)         52.7836         estimate D2E/DX2                !
 ! D60   D(11,10,17,41)        -66.5986         estimate D2E/DX2                !
 ! D61   D(11,10,17,42)        172.4197         estimate D2E/DX2                !
 ! D62   D(18,10,17,40)        -65.7594         estimate D2E/DX2                !
 ! D63   D(18,10,17,41)        174.8583         estimate D2E/DX2                !
 ! D64   D(18,10,17,42)         53.8766         estimate D2E/DX2                !
 ! D65   D(9,10,18,43)         -60.4504         estimate D2E/DX2                !
 ! D66   D(9,10,18,44)         178.8813         estimate D2E/DX2                !
 ! D67   D(9,10,18,45)          58.6185         estimate D2E/DX2                !
 ! D68   D(11,10,18,43)         61.2656         estimate D2E/DX2                !
 ! D69   D(11,10,18,44)        -59.4027         estimate D2E/DX2                !
 ! D70   D(11,10,18,45)       -179.6656         estimate D2E/DX2                !
 ! D71   D(17,10,18,43)        178.0162         estimate D2E/DX2                !
 ! D72   D(17,10,18,44)         57.3479         estimate D2E/DX2                !
 ! D73   D(17,10,18,45)        -62.915          estimate D2E/DX2                !
 ! D74   D(10,11,12,13)        -29.9848         estimate D2E/DX2                !
 ! D75   D(10,11,12,19)       -152.2806         estimate D2E/DX2                !
 ! D76   D(10,11,12,31)         91.0975         estimate D2E/DX2                !
 ! D77   D(29,11,12,13)         92.74           estimate D2E/DX2                !
 ! D78   D(29,11,12,19)        -29.5559         estimate D2E/DX2                !
 ! D79   D(29,11,12,31)       -146.1778         estimate D2E/DX2                !
 ! D80   D(30,11,12,13)       -152.2743         estimate D2E/DX2                !
 ! D81   D(30,11,12,19)         85.4299         estimate D2E/DX2                !
 ! D82   D(30,11,12,31)        -31.192          estimate D2E/DX2                !
 ! D83   D(11,12,13,14)        -24.2261         estimate D2E/DX2                !
 ! D84   D(11,12,13,32)       -146.7847         estimate D2E/DX2                !
 ! D85   D(11,12,13,33)         96.3143         estimate D2E/DX2                !
 ! D86   D(19,12,13,14)         93.6771         estimate D2E/DX2                !
 ! D87   D(19,12,13,32)        -28.8814         estimate D2E/DX2                !
 ! D88   D(19,12,13,33)       -145.7825         estimate D2E/DX2                !
 ! D89   D(31,12,13,14)       -146.5061         estimate D2E/DX2                !
 ! D90   D(31,12,13,32)         90.9354         estimate D2E/DX2                !
 ! D91   D(31,12,13,33)        -25.9656         estimate D2E/DX2                !
 ! D92   D(11,12,19,46)       -177.3026         estimate D2E/DX2                !
 ! D93   D(13,12,19,46)         60.3637         estimate D2E/DX2                !
 ! D94   D(31,12,19,46)        -59.3557         estimate D2E/DX2                !
 ! D95   D(12,13,14,9)          62.7503         estimate D2E/DX2                !
 ! D96   D(12,13,14,15)        178.0718         estimate D2E/DX2                !
 ! D97   D(12,13,14,16)        -62.484          estimate D2E/DX2                !
 ! D98   D(32,13,14,9)        -174.1112         estimate D2E/DX2                !
 ! D99   D(32,13,14,15)        -58.7897         estimate D2E/DX2                !
 ! D100  D(32,13,14,16)         60.6545         estimate D2E/DX2                !
 ! D101  D(33,13,14,9)         -58.6925         estimate D2E/DX2                !
 ! D102  D(33,13,14,15)         56.629          estimate D2E/DX2                !
 ! D103  D(33,13,14,16)        176.0732         estimate D2E/DX2                !
 ! D104  D(9,14,15,34)          55.5124         estimate D2E/DX2                !
 ! D105  D(9,14,15,35)         -65.1877         estimate D2E/DX2                !
 ! D106  D(9,14,15,36)         175.3859         estimate D2E/DX2                !
 ! D107  D(13,14,15,34)        -57.8309         estimate D2E/DX2                !
 ! D108  D(13,14,15,35)       -178.531          estimate D2E/DX2                !
 ! D109  D(13,14,15,36)         62.0426         estimate D2E/DX2                !
 ! D110  D(16,14,15,34)        179.6084         estimate D2E/DX2                !
 ! D111  D(16,14,15,35)         58.9083         estimate D2E/DX2                !
 ! D112  D(16,14,15,36)        -60.5181         estimate D2E/DX2                !
 ! D113  D(9,14,16,37)         -66.147          estimate D2E/DX2                !
 ! D114  D(9,14,16,38)         174.361          estimate D2E/DX2                !
 ! D115  D(9,14,16,39)          55.6751         estimate D2E/DX2                !
 ! D116  D(13,14,16,37)         54.0228         estimate D2E/DX2                !
 ! D117  D(13,14,16,38)        -65.4693         estimate D2E/DX2                !
 ! D118  D(13,14,16,39)        175.8449         estimate D2E/DX2                !
 ! D119  D(15,14,16,37)        173.4991         estimate D2E/DX2                !
 ! D120  D(15,14,16,38)         54.0071         estimate D2E/DX2                !
 ! D121  D(15,14,16,39)        -64.6787         estimate D2E/DX2                !
 --------------------------------------------------------------------------------
 Trust Radius=3.00D-01 FncErr=1.00D-07 GrdErr=1.00D-06 EigMax=2.50D+02 EigMin=1.00D-04
 Number of steps in this run=    264 maximum allowed number of steps=    276.
 GradGradGradGradGradGradGradGradGradGradGradGradGradGradGradGradGradGrad

 Leave Link  103 at Tue Jan  7 18:30:17 2025, MaxMem=  4026531840 cpu:               0.4 elap:               0.0
 (Enter /usr/local/intel/g16/l202.exe)
                          Input orientation:                          
 ---------------------------------------------------------------------
 Center     Atomic      Atomic             Coordinates (Angstroms)
 Number     Number       Type             X           Y           Z
 ---------------------------------------------------------------------
      1          6           0       -1.269764    2.353681    1.387541
      2          6           0       -1.450282    0.972966    0.773615
      3          6           0       -2.747659    0.858742   -0.021670
      4          8           0       -3.269245    1.762687   -0.680362
      5          8           0       -3.272044   -0.399840    0.071950
      6          6           0       -4.471525   -0.703993   -0.727611
      7          6           0       -4.778535   -2.177527   -0.512117
      8          8           0       -0.437146    0.639556   -0.232886
      9          7           0        0.846425    0.327195    0.391974
     10          6           0        1.008917   -1.171720    0.615442
     11          6           0        2.283494   -1.738051   -0.060725
     12          6           0        3.550450   -0.893339    0.107037
     13          6           0        3.241139    0.609813    0.236168
     14          6           0        1.902324    1.056562   -0.385202
     15          6           0        1.734418    2.564963   -0.123670
     16          6           0        1.838366    0.826134   -1.914926
     17          6           0       -0.182143   -1.977067    0.055665
     18          6           0        1.104804   -1.371186    2.145670
     19          8           0        4.359372   -1.195410   -1.073546
     20          1           0       -2.050606    2.539361    2.133301
     21          1           0       -1.334497    3.127756    0.619435
     22          1           0       -0.295979    2.401687    1.878849
     23          1           0       -1.451758    0.200518    1.547397
     24          1           0       -4.254510   -0.471978   -1.774439
     25          1           0       -5.284852   -0.053531   -0.391799
     26          1           0       -3.936106   -2.795434   -0.834700
     27          1           0       -5.662645   -2.460980   -1.092367
     28          1           0       -4.974745   -2.381407    0.544029
     29          1           0        2.110869   -1.855645   -1.132936
     30          1           0        2.457968   -2.744523    0.334016
     31          1           0        4.106686   -1.209608    1.000863
     32          1           0        4.049930    1.192704   -0.222836
     33          1           0        3.213369    0.878266    1.299766
     34          1           0        1.766085    2.777193    0.949808
     35          1           0        0.783000    2.921175   -0.525741
     36          1           0        2.543767    3.118859   -0.613584
     37          1           0        2.060310   -0.200635   -2.205177
     38          1           0        2.574867    1.469829   -2.409302
     39          1           0        0.843119    1.092624   -2.280537
     40          1           0        0.029582   -3.044277    0.191260
     41          1           0       -0.320988   -1.776871   -1.009730
     42          1           0       -1.123078   -1.751181    0.562047
     43          1           0        1.966918   -0.834091    2.555825
     44          1           0        1.204400   -2.435320    2.393113
     45          1           0        0.208638   -0.981441    2.638582
     46          1           0        5.213775   -0.729220   -1.031513
 ---------------------------------------------------------------------
                    Distance matrix (angstroms):
                    1          2          3          4          5
     1  C    0.000000
     2  C    1.521797   0.000000
     3  C    2.530789   1.526012   0.000000
     4  O    2.936566   2.458930   1.234117   0.000000
     5  O    3.649902   2.386576   1.366665   2.289652   0.000000
     6  C    4.906578   3.767463   2.431503   2.744489   1.473283
     7  C    6.037551   4.759830   3.685638   4.222742   2.402253
     8  O    2.501452   1.466510   2.330477   3.079358   3.034784
     9  N    3.094520   2.416099   3.656649   4.488795   4.194375
    10  C    4.268135   3.266857   4.317470   5.347198   4.383812
    11  C    5.609402   4.689011   5.661922   6.593332   5.715979
    12  C    5.951243   5.379102   6.538542   7.360891   6.840409
    13  C    4.971416   4.736049   5.999512   6.674897   6.593021
    14  C    3.858404   3.548213   4.668365   5.227892   5.394829
    15  C    3.369497   3.671769   4.796937   5.098058   5.821768
    16  C    4.785411   4.250296   4.961563   5.337506   5.618450
    17  C    4.659634   3.290338   3.824875   4.904864   3.469207
    18  C    4.481960   3.729081   4.950900   6.077822   4.939699
    19  O    7.095081   6.470389   7.472341   8.191503   7.757809
    20  H    1.095605   2.159335   2.820330   3.163069   3.792095
    21  H    1.092414   2.163400   2.748903   2.701136   4.061744
    22  H    1.091762   2.143642   3.464590   3.974694   4.468825
    23  H    2.166746   1.093351   2.138829   3.272085   2.418846
    24  H    5.185670   4.055137   2.667136   2.676094   2.092748
    25  H    5.008159   4.137126   2.721504   2.728477   2.094371
    26  H    6.209760   4.792373   3.927649   4.609229   2.646103
    27  H    6.973400   5.746118   4.545777   4.872112   3.364358
    28  H    6.071199   4.870972   3.972215   4.645576   2.654931
    29  H    5.958180   4.931305   5.675218   6.499444   5.704986
    30  H    6.402936   5.411782   6.341024   7.358320   6.196713
    31  H    6.461638   5.974543   7.232267   8.128063   7.480926
    32  H    5.678057   5.594062   6.808760   7.355578   7.498960
    33  H    4.720491   4.694193   6.105770   6.835744   6.723219
    34  H    3.096345   3.692058   4.999811   5.388991   6.020541
    35  H    2.862960   3.235953   4.119863   4.217427   5.275392
    36  H    4.374130   4.741477   5.784261   5.969487   6.831900
    37  H    5.524631   4.751294   5.385773   5.880804   5.801637
    38  H    5.475253   5.155546   5.865449   6.101528   6.621076
    39  H    4.416937   3.821237   4.248631   4.463304   4.969528
    40  H    5.679554   4.320576   4.794994   5.894819   4.231786
    41  H    4.869142   3.466587   3.716376   4.618352   3.431469
    42  H    4.189612   2.751872   3.129167   4.300800   2.585415
    43  H    4.690724   4.256640   5.633507   6.680836   5.814201
    44  H    5.483356   4.613732   5.683379   6.861706   5.437787
    45  H    3.856659   3.170146   4.382112   5.535458   4.363600
    46  H    7.575776   7.110948   8.180821   8.848420   8.563600
                    6          7          8          9         10
     6  C    0.000000
     7  C    1.520525   0.000000
     8  O    4.280898   5.182816   0.000000
     9  N    5.531493   6.223439   1.461360   0.000000
    10  C    5.661961   5.981441   2.468092   1.524168   0.000000
    11  C    6.866170   7.090074   3.617255   2.556432   1.549993
    12  C    8.067501   8.450117   4.285585   2.980376   2.606791
    13  C    7.882902   8.523166   3.708191   2.416362   2.881063
    14  C    6.621386   7.423565   2.381221   1.500300   2.600905
    15  C    7.040209   8.066019   2.904275   2.462118   3.877556
    16  C    6.600434   7.400894   2.835846   2.560210   3.328989
    17  C    4.542360   4.635664   2.644807   2.545718   1.542906
    18  C    6.308434   6.505974   3.475374   2.454935   1.546150
    19  O    8.851322   9.207665   5.203883   4.099618   3.752171
    20  H    4.956310   6.057133   3.436765   4.039639   5.043481
    21  H    5.132034   6.425561   2.778998   3.556867   4.896642
    22  H    5.820143   6.839534   2.753990   2.796319   4.008514
    23  H    3.887518   4.578662   2.095614   2.575402   2.967575
    24  H    1.093972   2.185625   4.264289   5.599246   5.822786
    25  H    1.094245   2.186822   4.899579   6.192884   6.471198
    26  H    2.161543   1.093415   4.940046   5.841930   5.403019
    27  H    2.153791   1.094845   6.136601   7.234997   7.006322
    28  H    2.164259   1.093394   5.506325   6.422279   6.105133
    29  H    6.694662   6.924804   3.678111   2.947704   2.176896
    30  H    7.301280   7.307831   4.489438   3.469277   2.157002
    31  H    8.765214   9.064939   5.058454   3.655381   3.121884
    32  H    8.744567   9.454308   4.521053   3.374839   3.942204
    33  H    8.103789   8.745932   3.966392   2.594261   3.087127
    34  H    7.337586   8.337777   3.289754   2.675714   4.034726
    35  H    6.386911   7.545039   2.603902   2.752264   4.255012
    36  H    7.990089   9.037594   3.895859   3.418407   4.719676
    37  H    6.715760   7.317401   3.291373   2.915015   3.162961
    38  H    7.563414   8.424668   3.807671   3.484289   4.310343
    39  H    5.821070   6.739747   2.457076   2.779965   3.679869
    40  H    5.155698   4.935989   3.737427   3.474815   2.155342
    41  H    4.296233   4.503096   2.540885   2.784730   2.185415
    42  H    3.737903   3.833793   2.611139   2.868364   2.209984
    43  H    7.228515   7.531150   3.965863   2.699322   2.190170
    44  H    6.704665   6.656000   4.364104   3.429897   2.189752
    45  H    5.771669   6.019088   3.360059   2.677041   2.183975
    46  H    9.690100  10.110075   5.868923   4.713393   4.537521
                   11         12         13         14         15
    11  C    0.000000
    12  C    1.531946   0.000000
    13  C    2.552978   1.540069   0.000000
    14  C    2.839091   2.600141   1.542112   0.000000
    15  C    4.338361   3.912934   2.494454   1.540086   0.000000
    16  C    3.195504   3.158505   2.577164   1.548303   2.498586
    17  C    2.479928   3.887076   4.294577   3.707057   4.933093
    18  C    2.528256   3.219557   3.483458   3.596569   4.586893
    19  O    2.372664   1.462661   2.494920   3.403275   4.683274
    20  H    6.472590   6.874664   5.943470   4.916015   4.406924
    21  H    6.101521   6.347792   5.236733   3.971920   3.207363
    22  H    5.249101   5.365774   4.291901   3.430426   2.856441
    23  H    4.505132   5.319139   4.889798   3.964545   4.305204
    24  H    6.876427   8.039583   7.835660   6.494076   6.914861
    25  H    7.760611   8.889132   8.574782   7.272403   7.496570
    26  H    6.356140   7.781604   8.015941   7.009079   7.835449
    27  H    8.045374   9.422165   9.511685   8.372690   8.995278
    28  H    7.311749   8.665117   8.748881   7.744493   8.362133
    29  H    1.092366   2.129779   3.038164   3.013892   4.549957
    30  H    1.095102   2.161462   3.445940   3.908230   5.378071
    31  H    2.174914   1.099250   2.155046   3.451944   4.597784
    32  H    3.425770   2.170224   1.097538   2.158034   2.693422
    33  H    3.092041   2.162131   1.097305   2.142369   2.656767
    34  H    4.655783   4.167376   2.717094   2.182060   1.094714
    35  H    4.916921   4.754966   3.459096   2.179316   1.092586
    36  H    4.895199   4.198862   2.739292   2.171791   1.096295
    37  H    2.648043   2.836669   2.830433   2.217614   3.476695
    38  H    3.986378   3.587239   2.860430   2.172576   2.670166
    39  H    3.874915   4.119976   3.509617   2.171523   2.759397
    40  H    2.617220   4.126759   4.865027   4.544926   5.871049
    41  H    2.772263   4.125025   4.465117   3.655338   4.884805
    42  H    3.463055   4.773342   4.972613   4.234827   5.221551
    43  H    2.786341   2.916787   3.014848   3.496910   4.334434
    44  H    2.769828   3.620470   4.251300   4.516566   5.622984
    45  H    3.487656   4.193351   4.183270   4.020609   4.747107
    46  H    3.247571   2.022345   2.700244   3.817387   4.876653
                   16         17         18         19         20
    16  C    0.000000
    17  C    3.977892   0.000000
    18  C    4.674908   2.528131   0.000000
    19  O    3.339166   4.744625   4.581098   0.000000
    20  H    5.869190   5.310918   5.024853   8.082091   0.000000
    21  H    4.667709   5.263551   5.340418   7.346842   1.775052
    22  H    4.629311   4.744517   4.033356   6.582404   1.778318
    23  H    4.817052   2.929004   3.060097   6.525886   2.484369
    24  H    6.231209   4.711555   6.700603   8.672576   5.403313
    25  H    7.337163   5.471549   7.000191   9.735488   4.853820
    26  H    6.901244   3.943946   6.026762   8.451750   6.389380
    27  H    8.230850   5.620325   7.580956  10.101626   6.960975
    28  H    7.921696   4.834359   6.367630   9.547192   5.940567
    29  H    2.806725   2.585618   3.463542   2.344185   6.877664
    30  H    4.265119   2.763450   2.645600   2.827776   7.175242
    31  H    4.217979   4.458301   3.216829   2.089791   7.297221
    32  H    2.808658   5.294852   4.566960   2.553928   6.676931
    33  H    3.496798   4.607626   3.197129   3.353515   5.582423
    34  H    3.466779   5.215177   4.367657   5.157584   4.003043
    35  H    2.726322   5.026162   5.066000   5.480584   3.904563
    36  H    2.729042   5.817812   5.463021   4.703286   5.384186
    37  H    1.089844   3.646329   4.605763   2.748791   6.574922
    38  H    1.095986   5.055518   5.565988   3.474507   6.570703
    39  H    1.093254   3.991492   5.072489   4.365314   5.472537
    40  H    4.763171   1.096426   2.788378   4.874949   6.267034
    41  H    3.501118   1.092897   3.486261   4.716772   5.612493
    42  H    4.641993   1.092157   2.759659   5.748157   4.662392
    43  H    4.770795   3.489363   1.095417   4.361963   5.263003
    44  H    5.440422   2.756113   1.097054   4.848603   5.950632
    45  H    5.163117   2.795611   1.094521   5.572636   4.213732
    46  H    3.820069   5.644024   5.233570   0.974220   8.571517
                   21         22         23         24         25
    21  H    0.000000
    22  H    1.786566   0.000000
    23  H    3.073042   2.508153   0.000000
    24  H    5.216818   6.105279   4.397984   0.000000
    25  H    5.171894   6.006063   4.303212   1.774372   0.000000
    26  H    6.630766   6.901010   4.563124   2.526448   3.087606
    27  H    7.273039   7.827820   5.637685   2.530651   2.535613
    28  H    6.603633   6.822799   4.481576   3.088681   2.528032
    29  H    6.306793   5.743574   4.909613   6.545541   7.648110
    30  H    6.996279   6.037732   5.042967   7.393741   8.229186
    31  H    6.968837   5.761577   5.760508   8.840588   9.564361
    32  H    5.783243   4.976509   5.864020   8.610596   9.419119
    33  H    5.119193   3.869324   4.720601   8.187986   8.714895
    34  H    3.137778   2.292647   4.165439   7.363844   7.715479
    35  H    2.416174   2.686283   4.085831   6.200745   6.759116
    36  H    4.069563   3.845870   5.399146   7.775491   8.449883
    37  H    5.530039   5.385485   5.155323   6.335307   7.567125
    38  H    5.215851   5.243887   5.786219   7.128398   8.256278
    39  H    4.158559   4.506848   4.551417   5.356299   6.514064
    40  H    6.335459   5.710733   3.816041   5.369743   6.125988
    41  H    5.266569   5.079849   3.424559   4.214276   5.290717
    42  H    4.883853   4.434453   2.210899   4.111130   4.594801
    43  H    5.508646   4.006153   3.711427   7.588707   7.866761
    44  H    6.367083   5.090407   3.836411   7.143032   7.452452
    45  H    4.831534   3.503910   2.311845   6.297142   6.342134
    46  H    7.777002   6.973534   7.207255   9.500870  10.539780
                   26         27         28         29         30
    26  H    0.000000
    27  H    1.777411   0.000000
    28  H    1.775129   1.776888   0.000000
    29  H    6.126831   7.797153   7.300313   0.000000
    30  H    6.500205   8.249807   7.444540   1.750009   0.000000
    31  H    8.400633  10.069130   9.168108   2.992281   2.349238
    32  H    8.947424  10.413434   9.736894   3.725677   4.283245
    33  H    8.316671   9.780414   8.845440   3.822017   3.824644
    34  H    8.170289   9.316382   8.497917   5.091158   5.598861
    35  H    7.419234   8.416353   7.900216   4.994991   5.970329
    36  H    8.775905   9.935242   9.387280   5.020241   5.940080
    37  H    6.675941   8.123518   7.861673   1.972642   3.616213
    38  H    7.941323   9.221832   8.975011   3.592100   5.029933
    39  H    6.328383   7.507650   7.341295   3.408294   4.916027
    40  H    4.103803   5.864246   5.060349   2.738265   2.450977
    41  H    3.759945   5.385920   4.943388   2.436250   3.234903
    42  H    3.309757   4.883500   3.902928   3.652710   3.723254
    43  H    7.084364   8.611986   7.391089   3.830307   2.971080
    44  H    6.080564   7.701009   6.450105   3.686561   2.430416
    45  H    5.703785   7.112031   5.763204   4.313591   3.671371
    46  H    9.382340  11.013592  10.441168   3.302597   3.677035
                   31         32         33         34         35
    31  H    0.000000
    32  H    2.696621   0.000000
    33  H    2.290541   1.765509   0.000000
    34  H    4.623376   3.016894   2.413095   0.000000
    35  H    5.517316   3.708395   3.662328   1.778885   0.000000
    36  H    4.876964   2.476143   3.021512   1.779247   1.774006
    37  H    3.935019   3.135228   3.844242   4.348328   3.767987
    38  H    4.599465   2.652026   3.809832   3.694178   2.977414
    39  H    5.169016   3.811533   4.299140   3.758293   2.535059
    40  H    4.543594   5.855483   5.172198   6.122120   6.055439
    41  H    4.895770   5.342518   4.987505   5.379141   4.850224
    42  H    5.276011   6.003542   5.124743   5.385517   5.162105
    43  H    2.671615   4.020920   2.462416   3.957398   4.999973
    44  H    3.444415   5.301206   4.026315   5.437730   6.114681
    45  H    4.234260   5.260242   3.778802   4.405103   5.056999
    46  H    2.363677   2.387946   3.467059   5.301616   5.763068
                   36         37         38         39         40
    36  H    0.000000
    37  H    3.712942   0.000000
    38  H    2.438210   1.759797   0.000000
    39  H    3.126750   1.777569   1.777024   0.000000
    40  H    6.704711   4.237106   5.798151   4.887287   0.000000
    41  H    5.686117   3.095835   4.570103   3.347252   1.780897
    42  H    6.208474   4.493960   5.733988   4.475873   1.771498
    43  H    5.099384   4.803866   5.507280   5.325932   3.772182
    44  H    6.456240   5.183693   6.339681   5.866849   2.568887
    45  H    5.730783   5.244077   6.090065   5.376062   3.205735
    46  H    4.702267   3.406058   3.701075   4.897123   5.807798
                   41         42         43         44         45
    41  H    0.000000
    42  H    1.764792   0.000000
    43  H    4.340107   3.790024   0.000000
    44  H    3.786780   3.039408   1.780967   0.000000
    45  H    3.771391   2.584176   1.766383   1.779202   0.000000
    46  H    5.633085   6.613588   4.839636   5.542015   6.211651
                   46
    46  H    0.000000
 Stoichiometry    C14H27NO4
 Framework group  C1[X(C14H27NO4)]
 Deg. of freedom   132
 Full point group                 C1      NOp   1
 Largest Abelian subgroup         C1      NOp   1
 Largest concise Abelian subgroup C1      NOp   1
                         Standard orientation:                         
 ---------------------------------------------------------------------
 Center     Atomic      Atomic             Coordinates (Angstroms)
 Number     Number       Type             X           Y           Z
 ---------------------------------------------------------------------
      1          6           0       -1.269764    2.353681    1.387541
      2          6           0       -1.450282    0.972966    0.773615
      3          6           0       -2.747659    0.858742   -0.021670
      4          8           0       -3.269245    1.762687   -0.680362
      5          8           0       -3.272044   -0.399840    0.071950
      6          6           0       -4.471525   -0.703993   -0.727611
      7          6           0       -4.778535   -2.177527   -0.512117
      8          8           0       -0.437146    0.639556   -0.232886
      9          7           0        0.846425    0.327195    0.391974
     10          6           0        1.008917   -1.171720    0.615442
     11          6           0        2.283494   -1.738051   -0.060725
     12          6           0        3.550450   -0.893339    0.107037
     13          6           0        3.241139    0.609813    0.236168
     14          6           0        1.902324    1.056562   -0.385202
     15          6           0        1.734418    2.564963   -0.123670
     16          6           0        1.838366    0.826134   -1.914926
     17          6           0       -0.182143   -1.977067    0.055665
     18          6           0        1.104804   -1.371186    2.145670
     19          8           0        4.359372   -1.195410   -1.073546
     20          1           0       -2.050606    2.539361    2.133301
     21          1           0       -1.334497    3.127756    0.619435
     22          1           0       -0.295979    2.401687    1.878849
     23          1           0       -1.451758    0.200518    1.547397
     24          1           0       -4.254510   -0.471978   -1.774439
     25          1           0       -5.284852   -0.053531   -0.391799
     26          1           0       -3.936106   -2.795434   -0.834700
     27          1           0       -5.662645   -2.460980   -1.092367
     28          1           0       -4.974745   -2.381407    0.544029
     29          1           0        2.110869   -1.855645   -1.132936
     30          1           0        2.457968   -2.744523    0.334016
     31          1           0        4.106686   -1.209608    1.000863
     32          1           0        4.049930    1.192704   -0.222836
     33          1           0        3.213369    0.878266    1.299766
     34          1           0        1.766085    2.777193    0.949808
     35          1           0        0.783000    2.921175   -0.525741
     36          1           0        2.543767    3.118859   -0.613584
     37          1           0        2.060310   -0.200635   -2.205177
     38          1           0        2.574867    1.469829   -2.409302
     39          1           0        0.843119    1.092624   -2.280537
     40          1           0        0.029582   -3.044277    0.191260
     41          1           0       -0.320988   -1.776871   -1.009730
     42          1           0       -1.123078   -1.751181    0.562047
     43          1           0        1.966918   -0.834091    2.555825
     44          1           0        1.204400   -2.435320    2.393113
     45          1           0        0.208638   -0.981441    2.638582
     46          1           0        5.213775   -0.729220   -1.031513
 ---------------------------------------------------------------------
 Rotational constants (GHZ):           0.6206610           0.2226480           0.1933797
 Leave Link  202 at Tue Jan  7 18:30:17 2025, MaxMem=  4026531840 cpu:               0.1 elap:               0.0
 (Enter /usr/local/intel/g16/l301.exe)
 Standard basis: def2TZVP (5D, 7F)
 Ernie: Thresh=  0.10000D-02 Tol=  0.10000D-05 Strict=F.
 There are   846 symmetry adapted cartesian basis functions of A   symmetry.
 There are   751 symmetry adapted basis functions of A   symmetry.
   751 basis functions,  1185 primitive gaussians,   846 cartesian basis functions
    75 alpha electrons       75 beta electrons
       nuclear repulsion energy      1673.2745875531 Hartrees.
 IExCor= 4336 DFT=T Ex+Corr=M062X ExCW=0 ScaHFX=  0.540000
 ScaDFX=  1.000000  1.000000  1.000000  1.000000 ScalE2=  1.000000  1.000000
 IRadAn=      5 IRanWt=     -1 IRanGd=            0 ICorTp=0 IEmpDi=  4
 NAtoms=   46 NActive=   46 NUniq=   46 SFac= 1.00D+00 NAtFMM=   60 NAOKFM=F Big=F
 Integral buffers will be    131072 words long.
 Raffenetti 2 integral format.
 Two-electron integral symmetry is turned on.
 Leave Link  301 at Tue Jan  7 18:30:18 2025, MaxMem=  4026531840 cpu:               1.3 elap:               0.1
 (Enter /usr/local/intel/g16/l302.exe)
 NPDir=0 NMtPBC=     1 NCelOv=     1 NCel=       1 NClECP=     1 NCelD=      1
         NCelK=      1 NCelE2=     1 NClLst=     1 CellRange=     0.0.
 One-electron integrals computed using PRISM.
 One-electron integral symmetry used in STVInt
   1 Symmetry operations used in ECPInt.
 ECPInt:  NShTT=   50403 NPrTT=  147652 LenC2=   45104 LenP2D=   95701.
 LDataN:  DoStor=T MaxTD1= 6 Len=  172
 NBasis=   751 RedAO= T EigKep=  2.89D-05  NBF=   751
 NBsUse=   751 1.00D-06 EigRej= -1.00D+00 NBFU=   751
 Precomputing XC quadrature grid using
 IXCGrd= 4 IRadAn=           5 IRanWt=          -1 IRanGd=           0 AccXCQ= 0.00D+00.
 Generated NRdTot=       0 NPtTot=           0 NUsed=           0 NTot=          32
 NSgBfM=   835   835   835   835   835 MxSgAt=    46 MxSgA2=    46.
 Leave Link  302 at Tue Jan  7 18:30:20 2025, MaxMem=  4026531840 cpu:              40.1 elap:               2.0
 (Enter /usr/local/intel/g16/l303.exe)
 DipDrv:  MaxL=1.
 Leave Link  303 at Tue Jan  7 18:30:20 2025, MaxMem=  4026531840 cpu:               4.7 elap:               0.3
 (Enter /usr/local/intel/g16/l401.exe)
 ExpMin= 9.52D-02 ExpMax= 2.70D+04 ExpMxC= 9.22D+02 IAcc=3 IRadAn=         5 AccDes= 0.00D+00
 Harris functional with IExCor= 1009 and IRadAn=       5 diagonalized for initial guess.
 HarFok:  IExCor= 1009 AccDes= 0.00D+00 IRadAn=         5 IDoV= 1 UseB2=F ITyADJ=14
 ICtDFT=  3500011 ScaDFX=  1.000000  1.000000  1.000000  1.000000
 FoFCou: FMM=F IPFlag=           0 FMFlag=      100000 FMFlg1=           0
         NFxFlg=           0 DoJE=T BraDBF=F KetDBF=T FulRan=T
         wScrn=  0.000000 ICntrl=       500 IOpCl=  0 I1Cent=   200000004 NGrid=           0
         NMat0=    1 NMatS0=      1 NMatT0=    0 NMatD0=    1 NMtDS0=    0 NMtDT0=    0
 Petite list used in FoFCou.
 Harris En= -904.964886789592    
 JPrj=0 DoOrth=F DoCkMO=F.
 Leave Link  401 at Tue Jan  7 18:30:27 2025, MaxMem=  4026531840 cpu:             126.7 elap:               6.4
 (Enter /usr/local/intel/g16/l502.exe)
 Integral symmetry usage will be decided dynamically.
 Closed shell SCF:
 Using DIIS extrapolation, IDIIS=  1040.
 NGot=  4026531840 LenX=  4025074694 LenY=  4024358132
 Requested convergence on RMS density matrix=1.00D-08 within 128 cycles.
 Requested convergence on MAX density matrix=1.00D-06.
 Requested convergence on             energy=1.00D-06.
 No special actions if energy rises.
 Fock matrices will be formed incrementally for  20 cycles.
 Integral accuracy reduced to 1.0D-05 until final iterations.

 Cycle   1  Pass 0  IDiag  1:
 FoFJK:  IHMeth= 1 ICntrl=       0 DoSepK=F KAlg= 0 I1Cent=           0 FoldK=F
 IRaf= 830000000 NMat=       1 IRICut=       1 DoRegI=T DoRafI=F ISym2E= 0 IDoP0=0 IntGTp=1.
 FoFCou: FMM=F IPFlag=           0 FMFlag=      100000 FMFlg1=           0
         NFxFlg=           0 DoJE=F BraDBF=F KetDBF=F FulRan=T
         wScrn=  0.000000 ICntrl=         0 IOpCl=  0 I1Cent=           0 NGrid=           0
         NMat0=    1 NMatS0=      1 NMatT0=    0 NMatD0=    1 NMtDS0=    0 NMtDT0=    0
 Symmetry not used in FoFCou.
 E= -904.649155708258    
 DIIS: error= 1.87D-02 at cycle   1 NSaved=   1.
 NSaved= 1 IEnMin= 1 EnMin= -904.649155708258     IErMin= 1 ErrMin= 1.87D-02
 ErrMax= 1.87D-02  0.00D+00 EMaxC= 1.00D-01 BMatC= 8.05D-01 BMatP= 8.05D-01
 IDIUse=3 WtCom= 8.13D-01 WtEn= 1.87D-01
 Coeff-Com:  0.100D+01
 Coeff-En:   0.100D+01
 Coeff:      0.100D+01
 Gap=     0.295 Goal=   None    Shift=    0.000
 GapD=    0.295 DampG=1.000 DampE=0.500 DampFc=0.5000 IDamp=-1.
 Damping current iteration by 5.00D-01
 RMSDP=2.42D-03 MaxDP=4.39D-01              OVMax= 2.03D-01

 Cycle   2  Pass 0  IDiag  1:
 RMSU=  1.21D-03    CP:  9.84D-01
 E= -904.967674714321     Delta-E=       -0.318519006064 Rises=F Damp=T
 DIIS: error= 4.60D-03 at cycle   2 NSaved=   2.
 NSaved= 2 IEnMin= 2 EnMin= -904.967674714321     IErMin= 2 ErrMin= 4.60D-03
 ErrMax= 4.60D-03  0.00D+00 EMaxC= 1.00D-01 BMatC= 6.23D-02 BMatP= 8.05D-01
 IDIUse=3 WtCom= 9.54D-01 WtEn= 4.60D-02
 Coeff-Com: -0.522D-01 0.105D+01
 Coeff-En:   0.000D+00 0.100D+01
 Coeff:     -0.498D-01 0.105D+01
 Gap=     0.347 Goal=   None    Shift=    0.000
 RMSDP=8.15D-04 MaxDP=5.27D-02 DE=-3.19D-01 OVMax= 8.88D-02

 Cycle   3  Pass 0  IDiag  1:
 RMSU=  8.12D-04    CP:  9.75D-01  9.72D-01
 E= -905.267903193808     Delta-E=       -0.300228479486 Rises=F Damp=F
 DIIS: error= 6.35D-03 at cycle   3 NSaved=   3.
 NSaved= 3 IEnMin= 3 EnMin= -905.267903193808     IErMin= 2 ErrMin= 4.60D-03
 ErrMax= 6.35D-03  0.00D+00 EMaxC= 1.00D-01 BMatC= 3.68D-02 BMatP= 6.23D-02
 IDIUse=3 WtCom= 9.36D-01 WtEn= 6.35D-02
 Coeff-Com: -0.815D-01 0.473D+00 0.609D+00
 Coeff-En:   0.000D+00 0.000D+00 0.100D+01
 Coeff:     -0.764D-01 0.443D+00 0.634D+00
 Gap=     0.306 Goal=   None    Shift=    0.000
 RMSDP=2.54D-04 MaxDP=2.62D-02 DE=-3.00D-01 OVMax= 6.23D-02

 Cycle   4  Pass 0  IDiag  1:
 RMSU=  2.34D-04    CP:  9.75D-01  1.03D+00  9.07D-01
 E= -905.286889592925     Delta-E=       -0.018986399118 Rises=F Damp=F
 DIIS: error= 3.14D-03 at cycle   4 NSaved=   4.
 NSaved= 4 IEnMin= 4 EnMin= -905.286889592925     IErMin= 4 ErrMin= 3.14D-03
 ErrMax= 3.14D-03  0.00D+00 EMaxC= 1.00D-01 BMatC= 1.03D-02 BMatP= 3.68D-02
 IDIUse=3 WtCom= 9.69D-01 WtEn= 3.14D-02
 Coeff-Com: -0.312D-01 0.892D-01 0.370D+00 0.572D+00
 Coeff-En:   0.000D+00 0.000D+00 0.234D+00 0.766D+00
 Coeff:     -0.303D-01 0.864D-01 0.366D+00 0.578D+00
 Gap=     0.304 Goal=   None    Shift=    0.000
 RMSDP=9.88D-05 MaxDP=9.15D-03 DE=-1.90D-02 OVMax= 2.25D-02

 Cycle   5  Pass 0  IDiag  1:
 RMSU=  5.95D-05    CP:  9.74D-01  1.03D+00  9.32D-01  6.75D-01
 E= -905.294178058341     Delta-E=       -0.007288465416 Rises=F Damp=F
 DIIS: error= 5.07D-04 at cycle   5 NSaved=   5.
 NSaved= 5 IEnMin= 5 EnMin= -905.294178058341     IErMin= 5 ErrMin= 5.07D-04
 ErrMax= 5.07D-04  0.00D+00 EMaxC= 1.00D-01 BMatC= 3.00D-04 BMatP= 1.03D-02
 IDIUse=3 WtCom= 9.95D-01 WtEn= 5.07D-03
 Coeff-Com: -0.970D-02 0.196D-01 0.139D+00 0.266D+00 0.586D+00
 Coeff-En:   0.000D+00 0.000D+00 0.000D+00 0.000D+00 0.100D+01
 Coeff:     -0.965D-02 0.195D-01 0.138D+00 0.264D+00 0.588D+00
 Gap=     0.306 Goal=   None    Shift=    0.000
 RMSDP=2.76D-05 MaxDP=3.60D-03 DE=-7.29D-03 OVMax= 4.24D-03

 Cycle   6  Pass 0  IDiag  1:
 RMSU=  1.85D-05    CP:  9.74D-01  1.02D+00  9.45D-01  6.90D-01  7.63D-01
 E= -905.294388657386     Delta-E=       -0.000210599044 Rises=F Damp=F
 DIIS: error= 1.20D-04 at cycle   6 NSaved=   6.
 NSaved= 6 IEnMin= 6 EnMin= -905.294388657386     IErMin= 6 ErrMin= 1.20D-04
 ErrMax= 1.20D-04  0.00D+00 EMaxC= 1.00D-01 BMatC= 2.46D-05 BMatP= 3.00D-04
 IDIUse=3 WtCom= 9.99D-01 WtEn= 1.20D-03
 Coeff-Com: -0.452D-03-0.170D-02 0.176D-01 0.475D-01 0.256D+00 0.682D+00
 Coeff-En:   0.000D+00 0.000D+00 0.000D+00 0.000D+00 0.000D+00 0.100D+01
 Coeff:     -0.452D-03-0.170D-02 0.176D-01 0.474D-01 0.255D+00 0.682D+00
 Gap=     0.307 Goal=   None    Shift=    0.000
 RMSDP=8.75D-06 MaxDP=6.78D-04 DE=-2.11D-04 OVMax= 5.90D-04

 Initial convergence to 1.0D-05 achieved.  Increase integral accuracy.
 Cycle   7  Pass 1  IDiag  1:
 E= -905.294432255685     Delta-E=       -0.000043598300 Rises=F Damp=F
 DIIS: error= 2.16D-04 at cycle   1 NSaved=   1.
 NSaved= 1 IEnMin= 1 EnMin= -905.294432255685     IErMin= 1 ErrMin= 2.16D-04
 ErrMax= 2.16D-04  0.00D+00 EMaxC= 1.00D-01 BMatC= 2.04D-05 BMatP= 2.04D-05
 IDIUse=3 WtCom= 9.98D-01 WtEn= 2.16D-03
 Coeff-Com:  0.100D+01
 Coeff-En:   0.100D+01
 Coeff:      0.100D+01
 Gap=     0.306 Goal=   None    Shift=    0.000
 RMSDP=8.75D-06 MaxDP=6.78D-04 DE=-4.36D-05 OVMax= 5.35D-04

 Cycle   8  Pass 1  IDiag  1:
 RMSU=  2.07D-04    CP:  9.98D-01
 E= -905.294443829772     Delta-E=       -0.000011574086 Rises=F Damp=F
 DIIS: error= 2.60D-05 at cycle   2 NSaved=   2.
 NSaved= 2 IEnMin= 2 EnMin= -905.294443829772     IErMin= 2 ErrMin= 2.60D-05
 ErrMax= 2.60D-05  0.00D+00 EMaxC= 1.00D-01 BMatC= 1.31D-06 BMatP= 2.04D-05
 IDIUse=1 WtCom= 1.00D+00 WtEn= 0.00D+00
 Coeff-Com:  0.878D-01 0.912D+00
 Coeff:      0.878D-01 0.912D+00
 Gap=     0.307 Goal=   None    Shift=    0.000
 RMSDP=6.92D-06 MaxDP=5.48D-04 DE=-1.16D-05 OVMax= 3.10D-04

 Cycle   9  Pass 1  IDiag  1:
 RMSU=  3.62D-06    CP:  9.98D-01  1.03D+00
 E= -905.294443782070     Delta-E=        0.000000047701 Rises=F Damp=F
 DIIS: error= 2.56D-05 at cycle   3 NSaved=   3.
 NSaved= 3 IEnMin= 2 EnMin= -905.294443829772     IErMin= 3 ErrMin= 2.56D-05
 ErrMax= 2.56D-05  0.00D+00 EMaxC= 1.00D-01 BMatC= 1.51D-06 BMatP= 1.31D-06
 IDIUse=1 WtCom= 1.00D+00 WtEn= 0.00D+00
 Coeff-Com: -0.846D-02 0.520D+00 0.489D+00
 Coeff:     -0.846D-02 0.520D+00 0.489D+00
 Gap=     0.307 Goal=   None    Shift=    0.000
 RMSDP=1.70D-06 MaxDP=1.43D-04 DE= 4.77D-08 OVMax= 1.47D-04

 Cycle  10  Pass 1  IDiag  1:
 RMSU=  1.06D-06    CP:  9.98D-01  1.03D+00  7.28D-01
 E= -905.294444872172     Delta-E=       -0.000001090102 Rises=F Damp=F
 DIIS: error= 4.70D-06 at cycle   4 NSaved=   4.
 NSaved= 4 IEnMin= 4 EnMin= -905.294444872172     IErMin= 4 ErrMin= 4.70D-06
 ErrMax= 4.70D-06  0.00D+00 EMaxC= 1.00D-01 BMatC= 1.86D-08 BMatP= 1.31D-06
 IDIUse=1 WtCom= 1.00D+00 WtEn= 0.00D+00
 Coeff-Com: -0.535D-02 0.209D+00 0.213D+00 0.583D+00
 Coeff:     -0.535D-02 0.209D+00 0.213D+00 0.583D+00
 Gap=     0.307 Goal=   None    Shift=    0.000
 RMSDP=2.18D-07 MaxDP=1.34D-05 DE=-1.09D-06 OVMax= 4.82D-05

 Cycle  11  Pass 1  IDiag  1:
 RMSU=  2.00D-07    CP:  9.98D-01  1.03D+00  7.33D-01  1.02D+00
 E= -905.294444888177     Delta-E=       -0.000000016005 Rises=F Damp=F
 DIIS: error= 2.15D-06 at cycle   5 NSaved=   5.
 NSaved= 5 IEnMin= 5 EnMin= -905.294444888177     IErMin= 5 ErrMin= 2.15D-06
 ErrMax= 2.15D-06  0.00D+00 EMaxC= 1.00D-01 BMatC= 3.58D-09 BMatP= 1.86D-08
 IDIUse=1 WtCom= 1.00D+00 WtEn= 0.00D+00
 Coeff-Com: -0.494D-03-0.227D-01-0.173D-01 0.258D+00 0.783D+00
 Coeff:     -0.494D-03-0.227D-01-0.173D-01 0.258D+00 0.783D+00
 Gap=     0.307 Goal=   None    Shift=    0.000
 RMSDP=1.28D-07 MaxDP=7.04D-06 DE=-1.60D-08 OVMax= 1.96D-05

 Cycle  12  Pass 1  IDiag  1:
 RMSU=  1.02D-07    CP:  9.98D-01  1.03D+00  7.41D-01  1.08D+00  1.03D+00
 E= -905.294444891407     Delta-E=       -0.000000003230 Rises=F Damp=F
 DIIS: error= 1.25D-06 at cycle   6 NSaved=   6.
 NSaved= 6 IEnMin= 6 EnMin= -905.294444891407     IErMin= 6 ErrMin= 1.25D-06
 ErrMax= 1.25D-06  0.00D+00 EMaxC= 1.00D-01 BMatC= 7.92D-10 BMatP= 3.58D-09
 IDIUse=1 WtCom= 1.00D+00 WtEn= 0.00D+00
 Coeff-Com:  0.102D-02-0.616D-01-0.607D-01 0.281D-01 0.425D+00 0.669D+00
 Coeff:      0.102D-02-0.616D-01-0.607D-01 0.281D-01 0.425D+00 0.669D+00
 Gap=     0.307 Goal=   None    Shift=    0.000
 RMSDP=4.62D-08 MaxDP=3.46D-06 DE=-3.23D-09 OVMax= 1.77D-05

 Cycle  13  Pass 1  IDiag  1:
 RMSU=  3.95D-08    CP:  9.98D-01  1.03D+00  7.43D-01  1.10D+00  1.04D+00
                    CP:  1.08D+00
 E= -905.294444892244     Delta-E=       -0.000000000838 Rises=F Damp=F
 DIIS: error= 2.25D-07 at cycle   7 NSaved=   7.
 NSaved= 7 IEnMin= 7 EnMin= -905.294444892244     IErMin= 7 ErrMin= 2.25D-07
 ErrMax= 2.25D-07  0.00D+00 EMaxC= 1.00D-01 BMatC= 5.82D-11 BMatP= 7.92D-10
 IDIUse=1 WtCom= 1.00D+00 WtEn= 0.00D+00
 Coeff-Com:  0.441D-03-0.228D-01-0.233D-01-0.605D-02 0.920D-01 0.275D+00
 Coeff-Com:  0.685D+00
 Coeff:      0.441D-03-0.228D-01-0.233D-01-0.605D-02 0.920D-01 0.275D+00
 Coeff:      0.685D+00
 Gap=     0.307 Goal=   None    Shift=    0.000
 RMSDP=1.66D-08 MaxDP=9.62D-07 DE=-8.38D-10 OVMax= 1.98D-06

 Cycle  14  Pass 1  IDiag  1:
 RMSU=  1.19D-08    CP:  9.98D-01  1.03D+00  7.42D-01  1.10D+00  1.03D+00
                    CP:  1.16D+00  1.03D+00
 E= -905.294444892259     Delta-E=       -0.000000000015 Rises=F Damp=F
 DIIS: error= 5.61D-08 at cycle   8 NSaved=   8.
 NSaved= 8 IEnMin= 8 EnMin= -905.294444892259     IErMin= 8 ErrMin= 5.61D-08
 ErrMax= 5.61D-08  0.00D+00 EMaxC= 1.00D-01 BMatC= 6.76D-12 BMatP= 5.82D-11
 IDIUse=1 WtCom= 1.00D+00 WtEn= 0.00D+00
 Coeff-Com:  0.213D-04 0.159D-03-0.274D-03-0.442D-02-0.286D-01 0.202D-01
 Coeff-Com:  0.277D+00 0.736D+00
 Coeff:      0.213D-04 0.159D-03-0.274D-03-0.442D-02-0.286D-01 0.202D-01
 Coeff:      0.277D+00 0.736D+00
 Gap=     0.307 Goal=   None    Shift=    0.000
 RMSDP=7.72D-09 MaxDP=3.96D-07 DE=-1.46D-11 OVMax= 1.02D-06

 SCF Done:  E(RM062X) =  -905.294444892     A.U. after   14 cycles
            NFock= 14  Conv=0.77D-08     -V/T= 2.0059
 KE= 8.999963729111D+02 PE=-5.457941423387D+03 EE= 1.979376018031D+03
 Leave Link  502 at Tue Jan  7 18:40:13 2025, MaxMem=  4026531840 cpu:           11712.8 elap:             585.9
 (Enter /usr/local/intel/g16/l601.exe)
 Copying SCF densities to generalized density rwf, IOpCl= 0 IROHF=0.

 **********************************************************************

            Population analysis using the SCF Density.

 **********************************************************************

 Orbital symmetries:
       Occupied  (A) (A) (A) (A) (A) (A) (A) (A) (A) (A) (A) (A)
                 (A) (A) (A) (A) (A) (A) (A) (A) (A) (A) (A) (A)
                 (A) (A) (A) (A) (A) (A) (A) (A) (A) (A) (A) (A)
                 (A) (A) (A) (A) (A) (A) (A) (A) (A) (A) (A) (A)
                 (A) (A) (A) (A) (A) (A) (A) (A) (A) (A) (A) (A)
                 (A) (A) (A) (A) (A) (A) (A) (A) (A) (A) (A) (A)
                 (A) (A) (A)
       Virtual   (A) (A) (A) (A) (A) (A) (A) (A) (A) (A) (A) (A)
                 (A) (A) (A) (A) (A) (A) (A) (A) (A) (A) (A) (A)
                 (A) (A) (A) (A) (A) (A) (A) (A) (A) (A) (A) (A)
                 (A) (A) (A) (A) (A) (A) (A) (A) (A) (A) (A) (A)
                 (A) (A) (A) (A) (A) (A) (A) (A) (A) (A) (A) (A)
                 (A) (A) (A) (A) (A) (A) (A) (A) (A) (A) (A) (A)
                 (A) (A) (A) (A) (A) (A) (A) (A) (A) (A) (A) (A)
                 (A) (A) (A) (A) (A) (A) (A) (A) (A) (A) (A) (A)
                 (A) (A) (A) (A) (A) (A) (A) (A) (A) (A) (A) (A)
                 (A) (A) (A) (A) (A) (A) (A) (A) (A) (A) (A) (A)
                 (A) (A) (A) (A) (A) (A) (A) (A) (A) (A) (A) (A)
                 (A) (A) (A) (A) (A) (A) (A) (A) (A) (A) (A) (A)
                 (A) (A) (A) (A) (A) (A) (A) (A) (A) (A) (A) (A)
                 (A) (A) (A) (A) (A) (A) (A) (A) (A) (A) (A) (A)
                 (A) (A) (A) (A) (A) (A) (A) (A) (A) (A) (A) (A)
                 (A) (A) (A) (A) (A) (A) (A) (A) (A) (A) (A) (A)
                 (A) (A) (A) (A) (A) (A) (A) (A) (A) (A) (A) (A)
                 (A) (A) (A) (A) (A) (A) (A) (A) (A) (A) (A) (A)
                 (A) (A) (A) (A) (A) (A) (A) (A) (A) (A) (A) (A)
                 (A) (A) (A) (A) (A) (A) (A) (A) (A) (A) (A) (A)
                 (A) (A) (A) (A) (A) (A) (A) (A) (A) (A) (A) (A)
                 (A) (A) (A) (A) (A) (A) (A) (A) (A) (A) (A) (A)
                 (A) (A) (A) (A) (A) (A) (A) (A) (A) (A) (A) (A)
                 (A) (A) (A) (A) (A) (A) (A) (A) (A) (A) (A) (A)
                 (A) (A) (A) (A) (A) (A) (A) (A) (A) (A) (A) (A)
                 (A) (A) (A) (A) (A) (A) (A) (A) (A) (A) (A) (A)
                 (A) (A) (A) (A) (A) (A) (A) (A) (A) (A) (A) (A)
                 (A) (A) (A) (A) (A) (A) (A) (A) (A) (A) (A) (A)
                 (A) (A) (A) (A) (A) (A) (A) (A) (A) (A) (A) (A)
                 (A) (A) (A) (A) (A) (A) (A) (A) (A) (A) (A) (A)
                 (A) (A) (A) (A) (A) (A) (A) (A) (A) (A) (A) (A)
                 (A) (A) (A) (A) (A) (A) (A) (A) (A) (A) (A) (A)
                 (A) (A) (A) (A) (A) (A) (A) (A) (A) (A) (A) (A)
                 (A) (A) (A) (A) (A) (A) (A) (A) (A) (A) (A) (A)
                 (A) (A) (A) (A) (A) (A) (A) (A) (A) (A) (A) (A)
                 (A) (A) (A) (A) (A) (A) (A) (A) (A) (A) (A) (A)
                 (A) (A) (A) (A) (A) (A) (A) (A) (A) (A) (A) (A)
                 (A) (A) (A) (A) (A) (A) (A) (A) (A) (A) (A) (A)
                 (A) (A) (A) (A) (A) (A) (A) (A) (A) (A) (A) (A)
                 (A) (A) (A) (A) (A) (A) (A) (A) (A) (A) (A) (A)
                 (A) (A) (A) (A) (A) (A) (A) (A) (A) (A) (A) (A)
                 (A) (A) (A) (A) (A) (A) (A) (A) (A) (A) (A) (A)
                 (A) (A) (A) (A) (A) (A) (A) (A) (A) (A) (A) (A)
                 (A) (A) (A) (A) (A) (A) (A) (A) (A) (A) (A) (A)
                 (A) (A) (A) (A) (A) (A) (A) (A) (A) (A) (A) (A)
                 (A) (A) (A) (A) (A) (A) (A) (A) (A) (A) (A) (A)
                 (A) (A) (A) (A) (A) (A) (A) (A) (A) (A) (A) (A)
                 (A) (A) (A) (A) (A) (A) (A) (A) (A) (A) (A) (A)
                 (A) (A) (A) (A) (A) (A) (A) (A) (A) (A) (A) (A)
                 (A) (A) (A) (A) (A) (A) (A) (A) (A) (A) (A) (A)
                 (A) (A) (A) (A) (A) (A) (A) (A) (A) (A) (A) (A)
                 (A) (A) (A) (A) (A) (A) (A) (A) (A) (A) (A) (A)
                 (A) (A) (A) (A) (A) (A) (A) (A) (A) (A) (A) (A)
                 (A) (A) (A) (A) (A) (A) (A) (A) (A) (A) (A) (A)
                 (A) (A) (A) (A) (A) (A) (A) (A) (A) (A) (A) (A)
                 (A) (A) (A) (A) (A) (A) (A) (A) (A) (A) (A) (A)
                 (A) (A) (A) (A)
 The electronic state is 1-A.
 Alpha  occ. eigenvalues --  -19.67303 -19.65695 -19.62405 -19.62040 -14.78694
 Alpha  occ. eigenvalues --  -10.67737 -10.60606 -10.60117 -10.59409 -10.58272
 Alpha  occ. eigenvalues --  -10.57837 -10.53913 -10.53777 -10.53251 -10.52758
 Alpha  occ. eigenvalues --  -10.52581 -10.52205 -10.51891 -10.51315  -1.21859
 Alpha  occ. eigenvalues --   -1.17323  -1.13155  -1.12793  -0.98719  -0.90724
 Alpha  occ. eigenvalues --   -0.89199  -0.86882  -0.84421  -0.81065  -0.78504
 Alpha  occ. eigenvalues --   -0.77400  -0.76884  -0.75835  -0.70618  -0.68326
 Alpha  occ. eigenvalues --   -0.65954  -0.64512  -0.60776  -0.59646  -0.58325
 Alpha  occ. eigenvalues --   -0.56980  -0.55881  -0.55679  -0.54162  -0.53993
 Alpha  occ. eigenvalues --   -0.51485  -0.50506  -0.50151  -0.49134  -0.49012
 Alpha  occ. eigenvalues --   -0.48398  -0.47578  -0.46822  -0.46398  -0.46152
 Alpha  occ. eigenvalues --   -0.45713  -0.44857  -0.44214  -0.43649  -0.43339
 Alpha  occ. eigenvalues --   -0.42881  -0.42535  -0.42277  -0.42115  -0.41349
 Alpha  occ. eigenvalues --   -0.40802  -0.39942  -0.39051  -0.38576  -0.37572
 Alpha  occ. eigenvalues --   -0.36795  -0.35393  -0.34636  -0.33727  -0.28042
 Alpha virt. eigenvalues --    0.02625   0.05082   0.06106   0.07096   0.08165
 Alpha virt. eigenvalues --    0.08650   0.09259   0.10213   0.10357   0.10666
 Alpha virt. eigenvalues --    0.11404   0.12246   0.12727   0.12999   0.13340
 Alpha virt. eigenvalues --    0.13763   0.13807   0.13979   0.14706   0.15623
 Alpha virt. eigenvalues --    0.15828   0.16160   0.16630   0.16889   0.17568
 Alpha virt. eigenvalues --    0.17915   0.18198   0.18373   0.18830   0.19438
 Alpha virt. eigenvalues --    0.20128   0.20447   0.20728   0.21440   0.21895
 Alpha virt. eigenvalues --    0.22052   0.22274   0.23118   0.23267   0.24192
 Alpha virt. eigenvalues --    0.25037   0.25107   0.25800   0.25943   0.26204
 Alpha virt. eigenvalues --    0.26564   0.27409   0.27641   0.28178   0.28783
 Alpha virt. eigenvalues --    0.29428   0.30239   0.30557   0.31612   0.32169
 Alpha virt. eigenvalues --    0.32819   0.33224   0.33887   0.34444   0.35004
 Alpha virt. eigenvalues --    0.35701   0.36518   0.36838   0.37609   0.37787
 Alpha virt. eigenvalues --    0.38724   0.39283   0.40250   0.40282   0.40823
 Alpha virt. eigenvalues --    0.41325   0.41581   0.42536   0.42676   0.43225
 Alpha virt. eigenvalues --    0.43425   0.44233   0.44851   0.45078   0.45272
 Alpha virt. eigenvalues --    0.45453   0.46154   0.46511   0.46650   0.46936
 Alpha virt. eigenvalues --    0.47282   0.47854   0.47960   0.48216   0.49055
 Alpha virt. eigenvalues --    0.49283   0.49362   0.49702   0.49922   0.50395
 Alpha virt. eigenvalues --    0.50460   0.50880   0.51408   0.51811   0.52117
 Alpha virt. eigenvalues --    0.52567   0.53121   0.53504   0.53954   0.54415
 Alpha virt. eigenvalues --    0.54595   0.55349   0.55933   0.56098   0.56900
 Alpha virt. eigenvalues --    0.57304   0.58006   0.58559   0.58686   0.59449
 Alpha virt. eigenvalues --    0.60393   0.60767   0.61646   0.62348   0.63490
 Alpha virt. eigenvalues --    0.63884   0.64670   0.64992   0.65625   0.66314
 Alpha virt. eigenvalues --    0.66940   0.67091   0.67754   0.69244   0.70310
 Alpha virt. eigenvalues --    0.71276   0.71992   0.73098   0.73726   0.74192
 Alpha virt. eigenvalues --    0.75982   0.76575   0.76977   0.78086   0.78495
 Alpha virt. eigenvalues --    0.79330   0.80630   0.82292   0.82432   0.83747
 Alpha virt. eigenvalues --    0.84800   0.85569   0.86096   0.87531   0.88107
 Alpha virt. eigenvalues --    0.88326   0.89354   0.90134   0.90256   0.90609
 Alpha virt. eigenvalues --    0.91938   0.92388   0.93405   0.93714   0.94951
 Alpha virt. eigenvalues --    0.95579   0.96397   0.97338   0.97674   0.98479
 Alpha virt. eigenvalues --    0.99449   1.00203   1.01750   1.01939   1.02218
 Alpha virt. eigenvalues --    1.02896   1.03961   1.04578   1.05416   1.05932
 Alpha virt. eigenvalues --    1.07576   1.07954   1.08399   1.09422   1.10277
 Alpha virt. eigenvalues --    1.10822   1.11869   1.12491   1.13053   1.13659
 Alpha virt. eigenvalues --    1.14495   1.15208   1.16429   1.18026   1.19065
 Alpha virt. eigenvalues --    1.19485   1.20322   1.21631   1.22190   1.22394
 Alpha virt. eigenvalues --    1.23276   1.23939   1.24890   1.25309   1.25860
 Alpha virt. eigenvalues --    1.27310   1.28801   1.28986   1.29421   1.30952
 Alpha virt. eigenvalues --    1.32380   1.32913   1.35344   1.35504   1.35916
 Alpha virt. eigenvalues --    1.37458   1.38502   1.39604   1.40348   1.41929
 Alpha virt. eigenvalues --    1.42136   1.44223   1.44560   1.45241   1.47743
[...]
 458,-0.00000184,0.00000084,0.00000561,-0.00000240,0.00001360,-0.000011
 05,0.00000551,-0.00000357,0.00001452,0.00001051,-0.00000499,0.00000852
 ,0.00006297,-0.00010753,-0.00002608,0.00006591,-0.00026817,-0.00015680
 ,0.00002106,0.00028944,0.00001566,0.00012542,0.00021349,0.00009087,-0.
 00015503,0.00049979,-0.00000654,0.00006273,0.00000607,0.00000919,-0.00
 001051,0.00002931,-0.00000306,0.00002649,0.00001530,-0.00002242,0.0000
 1371,0.00003037,0.00000226,0.00001372,-0.00000459,0.00000992,-0.000010
 04,0.00002951,0.00001315,-0.00014981,0.00012071,0.00000430,-0.00053411
 ,-0.00018148,0.00050748,0.00010212,0.00010836,0.24473606,0.00004412,0.
 00000182,0.00004944,0.00017861,0.00005130,-0.00006707,-0.00001145,-0.0
 0009695,0.00001384,-0.00001592,0.00003314,-0.00000700,-0.00001601,0.00
 004376,0.00000064,0.00002784,0.00000245,0.00000762,-0.00000127,-0.0000
 0651,0.00000046,-0.00019128,0.00001083,-0.00006764,0.00114426,0.000612
 56,-0.00052126,0.00157760,-0.00081058,0.00124440,-0.00019547,0.0000904
 4,-0.00021704,-0.00025074,0.00019431,-0.00079806,-0.00013728,-0.000039
 58,0.00038111,-0.00022124,-0.00000394,0.00010302,0.00012066,0.00003549
 ,0.00001319,0.00001821,0.00002603,-0.00000875,0.00021713,0.00046092,-0
 .00044136,-0.11633398,-0.12066888,-0.03299663,0.00008111,-0.00011346,0
 .00039814,-0.00001410,0.00000734,0.00000064,-0.00001694,-0.00001527,-0
 .00001132,-0.00002627,-0.00001144,-0.00002249,-0.00009024,0.00001504,0
 .00001570,-0.00000190,0.00000262,-0.00000172,-0.00000331,0.00000079,0.
 00000196,0.00000342,-0.00000008,0.00000777,-0.00000609,0.00000283,-0.0
 0000149,0.00000775,0.00000361,-0.00000312,0.00010623,-0.00002405,0.000
 07308,-0.00015026,-0.00011557,-0.00004694,0.00048383,-0.00005412,-0.00
 003051,0.00003839,0.00001166,0.00004273,-0.00044097,-0.00032192,0.0005
 5447,-0.00001123,-0.00002234,-0.00003004,0.00000269,-0.00002893,-0.000
 01198,-0.00000048,0.00004328,-0.00002043,-0.00002368,-0.00001216,-0.00
 001457,0.00000264,0.00000760,-0.00002773,0.00000049,-0.00001544,0.0000
 0457,0.00016233,0.00049009,0.00019033,-0.00022953,0.00030325,0.0000529
 1,-0.00010839,-0.00010505,0.00012980,0.12793411,0.12746546,0.00001414,
 0.00000606,0.00000389,0.00003478,0.00006323,0.00005114,-0.00014612,-0.
 00029078,-0.00012744,0.00003447,0.00009885,0.00003847,0.00004619,0.000
 19503,0.00009140,0.00001560,-0.00001357,-0.00000449,0.00000405,-0.0000
 1161,-0.00001456,0.00037278,0.00023168,0.00066805,0.00120173,-0.001730
 15,0.00116891,-0.02786007,-0.01793077,-0.00827767,-0.00063664,0.000334
 37,0.00197149,0.00047857,-0.00037353,-0.00098544,-0.00007443,-0.000016
 29,-0.00060596,-0.00038030,0.00016057,-0.00010977,0.00012938,0.0000402
 1,-0.00003027,0.00011826,-0.00004416,0.00000943,-0.00017209,0.00150133
 ,-0.00683582,-0.04932638,-0.03141147,-0.05964054,-0.00008839,0.0001745
 9,0.00043855,0.00001037,0.00000810,-0.00000121,-0.00001970,-0.00000292
 ,-0.00000505,-0.00002083,0.00001159,0.00002969,-0.00006258,0.00001832,
 -0.00007958,-0.00000289,0.00000554,-0.00000212,-0.00000457,0.00000663,
 0.00000563,0.00000907,-0.00000531,0.00003141,-0.00001553,0.00001275,0.
 00000264,0.00002065,0.00000901,-0.00001236,-0.00012868,0.00019602,0.00
 021562,0.00018163,-0.00009187,-0.00001478,0.00053504,-0.00003657,-0.00
 013182,0.00001307,0.00000912,0.00025772,0.00033485,0.00064799,0.000063
 87,-0.00001220,0.00002772,0.00001625,0.00002594,-0.00004321,0.00001882
 ,-0.00000130,0.00003112,-0.00000712,-0.00005550,0.00001276,0.00000656,
 -0.00000117,0.00002022,-0.00000926,0.00003484,-0.00002176,0.00006025,0
 .00023331,-0.00007185,0.00006652,-0.00166954,-0.00133902,-0.00050392,-
 0.00003611,0.00017092,0.00009004,0.05525471,0.03588824,0.06734225,0.00
 000818,-0.00002929,-0.00003412,-0.00033854,-0.00018487,0.00041051,0.00
 028006,0.00027524,0.00009871,-0.00013576,-0.00003563,-0.00003790,-0.00
 010046,-0.00016465,-0.00008118,0.00003798,0.00001835,0.00001884,-0.000
 00757,0.00001247,-0.00000849,0.00020080,-0.00001892,0.00012117,0.00192
 351,0.00088563,-0.00199310,-0.00233102,0.00506592,-0.00047253,-0.00023
 721,-0.00017961,0.00055280,0.00018067,-0.00016394,0.00014338,-0.000257
 44,-0.00024976,-0.00035654,-0.00050776,-0.00007202,-0.00033649,0.00006
 150,-0.00001691,-0.00007619,0.00018116,0.00011307,-0.00007417,0.000145
 35,0.00018460,-0.00002507,-0.05228558,0.03109847,-0.00948653,-0.000038
 37,0.00008050,-0.00005810,0.00000802,-0.00000135,0.00000218,-0.0000048
 4,0.00002219,-0.00001112,-0.00002304,-0.00005122,0.00001051,0.00005224
 ,0.00023146,-0.00012550,-0.00000584,-0.00000499,0.00000056,-0.00000659
 ,0.00000091,-0.00000505,-0.00000031,0.00000017,-0.00000509,0.00000291,
 -0.00000913,-0.00000091,-0.00000636,-0.00000769,0.00000463,-0.00004194
 ,-0.00000416,-0.00007106,0.00004192,-0.00000219,0.00074504,-0.00008361
 ,-0.00007253,-0.00008915,0.00003953,0.00006054,0.00014304,0.00005479,0
 .00013778,0.00020096,-0.00001792,0.00001581,0.00001256,-0.00000034,-0.
 00000420,0.00001839,0.00000207,0.00003355,-0.00000469,0.00000823,-0.00
 000483,0.00000553,-0.00001521,-0.00001319,-0.00008795,-0.00000693,0.00
 001453,0.00002771,-0.00005070,-0.00023327,-0.00055430,-0.00003150,-0.0
 0008546,0.00022596,-0.00017392,0.00015665,0.00004327,0.00462802,-0.024
 86698,0.00870893,0.05103047,-0.00002085,0.00000605,-0.00003477,-0.0001
 3704,0.00020700,-0.00006191,-0.00037302,-0.00022403,-0.00017008,0.0002
 0282,0.00001372,0.00006665,0.00019307,0.00019484,0.00012401,-0.0001058
 9,-0.00004075,-0.00005091,0.00001377,-0.00000777,0.00001103,0.00022850
 ,0.00007157,0.00077759,-0.00010812,-0.00023415,0.00130906,0.00001217,-
 0.00238961,-0.00204931,0.00033059,-0.00015606,-0.00060434,-0.00003443,
 -0.00031840,-0.00001651,-0.00010997,-0.00008732,-0.00018905,0.00078950
 ,0.00053338,-0.00004467,-0.00006434,0.00000738,0.00001859,-0.00017130,
 -0.00021087,0.00011453,-0.00016328,-0.00008553,-0.00068718,0.03145464,
 -0.28619784,0.07444903,-0.00006314,0.00018593,-0.00003052,0.00001526,-
 0.00001797,-0.00000996,0.00001497,-0.00000865,0.00002154,-0.00000368,0
 .00009014,0.00001500,-0.00002568,-0.00014305,0.00001514,0.00001113,0.0
 0000473,0.00000336,0.00001722,-0.00000009,0.00000616,-0.00000405,-0.00
 000176,-0.00000091,0.00000448,0.00001018,0.00000480,-0.00000133,0.0000
 0566,-0.00000505,-0.00012538,0.00036005,-0.00002550,-0.00020841,0.0006
 7635,-0.00031446,-0.00006772,-0.00005117,0.00001002,-0.00003250,0.0000
 4081,0.00010049,0.00009517,0.00015223,0.00009183,0.00001471,0.00004102
 ,0.00000416,0.00000878,0.00002038,-0.00000346,-0.00002469,-0.00003479,
 0.00003509,-0.00000340,0.00003875,0.00001569,-0.00000574,0.00000685,0.
 00011853,0.00001578,0.00001354,-0.00001841,-0.00001728,0.00052611,-0.0
 0021232,0.00003116,0.00032601,0.00000719,0.00002984,-0.00007910,0.0002
 2112,0.00309876,-0.01415649,0.00444240,-0.03501965,0.31128753,-0.00012
 000,0.00001981,0.00011015,0.00055720,-0.00013279,-0.00062161,0.0000741
 9,0.00006521,0.00015281,-0.00004271,-0.00000738,-0.00004564,-0.0000522
 2,-0.00008304,-0.00003459,0.00002935,0.00002354,0.00001677,-0.00000361
 ,0.00000531,-0.00000024,-0.00130942,0.00085291,-0.00131003,-0.00068003
 ,0.00390920,-0.00495217,-0.00261434,0.02743740,-0.00533315,-0.00049795
 ,0.00116104,0.00078086,0.00006184,-0.00000967,-0.00007062,-0.00023582,
 -0.00004669,-0.00001004,-0.00101658,0.00026073,-0.00013743,0.00020271,
 -0.00000883,-0.00020128,0.00019692,0.00013454,-0.00003871,0.00047689,0
 .00084316,0.00116166,-0.00915747,0.07124584,-0.07140792,0.00001556,-0.
 00008831,0.00005334,-0.00002455,0.00003762,0.00002047,0.00002679,-0.00
 002177,0.00000155,0.00000114,0.00004698,-0.00007564,-0.00008760,-0.000
 13487,0.00016070,-0.00000066,-0.00000471,-0.00000035,-0.00000648,-0.00
 000238,-0.00000303,-0.00000085,0.00000417,-0.00000799,0.00000283,-0.00
 000648,-0.00000094,-0.00000670,-0.00000444,0.00000610,-0.00005788,-0.0
 0037795,0.00032676,0.00067581,-0.00069052,-0.00050913,0.00004466,-0.00
 000911,0.00000277,0.00007313,-0.00005208,0.00002394,0.00003617,0.00004
 124,0.00000370,-0.00000272,0.00000450,0.00001565,-0.00001336,-0.000027
 03,0.00000705,0.00000708,0.00011468,-0.00000383,0.00000136,-0.00004000
 ,-0.00004734,0.00001496,-0.00004166,-0.00011941,-0.00001631,-0.0000039
 7,0.00004353,-0.00037854,-0.00063496,-0.00036726,0.00026314,-0.0001616
 7,0.00021344,-0.00015761,-0.00010901,0.00001454,0.00202150,-0.00744982
 ,0.00141818,0.01123144,-0.08082047,0.07614450,0.00013032,-0.00014075,0
 .00004370,-0.00075386,0.00026954,0.00010641,0.00016581,0.00024701,0.00
 001719,-0.00008175,-0.00006136,-0.00002451,-0.00005889,-0.00013463,-0.
 00006671,0.00001179,0.00000273,0.00001931,-0.00000619,0.00000379,0.000
 00247,0.00045367,-0.00027661,0.00001163,0.00082283,-0.00086513,-0.0004
 1419,0.00296899,-0.00160643,-0.00401191,0.00087149,-0.00026144,-0.0009
 4163,-0.00002761,0.00004992,-0.00066844,-0.00004343,-0.00000398,-0.000
 05850,-0.00028440,-0.00016670,-0.00006605,0.00005434,0.00002137,0.0000
 6988,0.00009978,0.00006337,-0.00000969,0.00108003,-0.00027020,-0.00009
 066,-0.21052100,0.08397664,0.10402950,-0.00003862,-0.00001300,0.000392
 08,0.00000874,-0.00001093,-0.00000088,-0.00003946,-0.00001349,-0.00004
 633,0.00002165,-0.00016373,0.00011305,-0.00089748,0.00082836,-0.000930
 74,-0.00000237,0.00000032,0.00000047,0.00000065,-0.00000147,-0.0000055
 8,-0.00000006,0.00000043,-0.00000858,0.00000275,-0.00000530,-0.0000012
 7,-0.00000501,-0.00000241,0.00000349,0.00025186,-0.00004748,-0.0000525
 7,0.00005137,-0.00021546,-0.00018222,0.00027542,-0.00007035,0.00011869
 ,0.00001855,-0.00001220,0.00008432,-0.00001611,0.00014587,0.00007149,-
 0.00003093,-0.00001796,-0.00000424,0.00001975,-0.00003322,0.00001217,0
 .00000607,0.00000308,-0.00002497,-0.00000735,-0.00003825,-0.00002721,-
 0.00000999,-0.00001475,-0.00003809,0.00001131,-0.00000406,0.00003210,-
 0.00003630,-0.00013466,-0.00004983,0.00012311,0.00000641,0.00007906,0.
 00020103,0.00023156,0.00003806,-0.01989263,0.01121783,0.01281546,-0.00
 219044,0.00025777,0.00049268,0.22725293,0.00012441,0.00006519,0.000048
 97,0.00051407,0.00006685,0.00003025,0.00006747,0.00015322,0.00006198,-
 0.00002939,-0.00007153,-0.00003963,-0.00008882,-0.00013795,-0.00003824
 ,0.00002337,0.00000622,-0.00000387,-0.00000492,0.00001226,-0.00001037,
 -0.00028763,0.00006739,0.00002646,-0.00100837,0.00040572,0.00005870,-0
 .00074226,-0.00119687,0.00220017,0.00020333,-0.00001157,-0.00011446,-0
 .00018021,-0.00010023,-0.00031757,0.00001466,-0.00005548,-0.00006475,-
 0.00015229,0.00005991,0.00006610,0.00003969,0.00001786,0.00000225,0.00
 003668,-0.00002147,-0.00005282,0.00053804,-0.00030915,-0.00020342,0.08
 417322,-0.08911713,-0.05337842,0.00011540,0.00007024,0.00007283,0.0000
 1071,0.00000932,-0.00000392,-0.00008089,-0.00001811,-0.00004496,-0.000
 12542,-0.00012789,-0.00003781,0.00067134,-0.00001940,0.00054415,-0.000
 00180,-0.00000467,0.00000391,-0.00000870,0.00000486,-0.00000252,-0.000
 00064,-0.00000069,0.00000148,0.00000164,-0.00000643,0.00000101,-0.0000
 0354,-0.00001053,0.00000030,0.00005267,0.00050463,-0.00015777,-0.00030
 269,0.00057411,-0.00006249,0.00009714,-0.00007332,0.00008323,0.0000137
 3,0.00003304,0.00004795,-0.00000424,0.00008405,0.00004535,-0.00001508,
 -0.00001590,-0.00000645,-0.00000293,-0.00001086,0.00000928,0.00000716,
 0.00001300,-0.00001688,0.00000144,0.00001962,0.00001238,0.00000593,0.0
 0002322,-0.00001761,0.00000011,0.00001311,0.00000737,0.00007556,0.0000
 6072,-0.00009870,-0.00019728,0.00002959,0.00016145,-0.00038316,0.00006
 527,-0.00029636,-0.01352239,0.00665097,0.00910841,0.02310915,-0.010311
 81,-0.01526252,-0.09277945,0.09261885,-0.00003166,0.00004498,0.0001773
 4,0.00048250,0.00057088,-0.00087899,-0.00064807,-0.00029761,-0.0000693
 3,0.00033889,-0.00004811,0.00003547,0.00023251,0.00018764,0.00017928,-
 0.00012901,-0.00004096,-0.00007929,0.00002217,-0.00000173,0.00000227,-
 0.00084062,0.00014886,0.00005597,-0.00011521,-0.00179696,0.00259208,0.
 02609862,-0.01311510,-0.01727516,-0.00276778,0.00053361,-0.00655175,-0
 .00074943,-0.00055954,-0.00021041,0.00008334,-0.00010235,0.00003175,0.
 00036859,0.00026329,0.00028301,-0.00001910,0.00002867,0.00000854,-0.00
 014835,-0.00020009,0.00012390,0.00166164,0.00059292,0.00160083,0.10161
 313,-0.05119210,-0.10916383,0.00041661,0.00024981,-0.00002095,0.000007
 14,-0.00000628,0.00000210,0.00000992,-0.00010994,-0.00001486,-0.000030
 58,0.00012009,-0.00003548,-0.00094562,0.00016764,0.00006972,0.00002037
 ,-0.00000095,0.00000856,0.00001619,0.00000511,0.00001053,-0.00000575,0
 .00000069,0.00000121,0.00000644,0.00001031,0.00000874,-0.00000634,-0.0
 0000121,-0.00000318,0.00174016,-0.00070534,-0.00099116,-0.00028471,0.0
 0007216,0.00020271,0.00019237,0.00007489,0.00007489,-0.00002967,0.0000
 7561,0.00000489,0.00001377,0.00007480,0.00000144,0.00002933,0.00003075
 ,0.00000443,-0.00001120,0.00003142,-0.00003089,-0.00002338,-0.00000736
 ,0.00002063,0.00001525,-0.00000976,0.00011960,-0.00000437,0.00004818,0
 .00009152,-0.00000586,0.00003705,-0.00004382,-0.00006758,0.00007446,-0
 .00003403,-0.00014821,0.00029308,0.00025202,-0.00084946,-0.00025592,0.
 00009655,-0.00608003,0.00367801,0.00338206,-0.00874610,0.00335137,0.00
 464154,-0.11077113,0.05765662,0.12132771,0.00001390,-0.00001827,-0.000
 03475,-0.00010014,0.00004550,0.00015693,-0.00015128,-0.00005981,-0.000
 08735,0.00010304,-0.00000488,0.00003008,0.00011044,0.00007717,0.000057
 28,-0.00007405,-0.00002772,-0.00003166,0.00000383,0.00000131,0.0000072
 4,0.00035397,0.00012838,-0.00010294,0.00023347,-0.00003540,-0.00011856
 ,0.00030469,-0.00129740,0.00022406,-0.00180284,0.00141450,0.00336146,-
 0.01749121,-0.01146326,-0.00203648,0.00037513,-0.00051389,-0.00157856,
 -0.00077220,-0.00017141,-0.00023700,0.00021635,0.00001141,0.00002615,0
 .00009055,-0.00011399,-0.00001842,-0.00012056,0.00013945,0.00011244,-0
 .00022863,0.00006963,0.00000343,-0.39565980,-0.21265558,0.03783429,0.0
 0001900,-0.00000034,-0.00001394,-0.00002204,0.00001510,0.00000207,-0.0
 0001050,0.00000958,0.00003637,0.00001608,0.00000463,-0.00003238,0.0000
 0340,0.00000208,0.00000320,0.00001041,0.00000061,0.,-0.00000416,-0.000
 00337,-0.00000454,0.00000715,0.00000336,0.00000327,-0.00000371,0.00000
 107,-0.00000291,0.00050305,0.00050724,0.00061695,-0.00028388,-0.000158
 32,0.00024559,0.00185534,-0.00019772,-0.00092530,0.00014342,0.00162352
 ,0.00022812,0.00068388,-0.00046162,-0.00044873,-0.00001596,0.00001758,
 -0.00000565,0.00006529,-0.00009228,0.00003265,-0.00000499,0.00008112,-
 0.00001739,-0.00010789,-0.00011966,0.00011595,-0.00007268,0.00020969,-
 0.00015275,0.00011931,0.00002005,0.00000535,0.00001892,0.00003749,-0.0
 0000491,-0.00001502,-0.00002594,-0.00000690,-0.00004797,-0.00004235,-0
 .00003889,0.00004424,-0.00000422,0.00008721,0.00001178,0.00005081,-0.0
 0002396,0.00003961,0.00002519,0.00009028,0.41164328,-0.00001549,0.0000
 1132,0.00002852,0.00006593,-0.00003324,-0.00014336,0.00011512,0.000074
 79,0.00008554,-0.00007918,-0.00000846,-0.00002759,-0.00009148,-0.00007
 877,-0.00005359,0.00006169,0.00002710,0.00002624,-0.00000472,-0.000001
 12,-0.00000585,-0.00034010,-0.00011334,0.00015770,-0.00017475,0.000197
 31,-0.00015759,0.00042876,0.00041559,0.00000152,0.00026469,0.00048403,
 -0.00100282,0.01157956,0.00366525,-0.00340635,0.00228761,0.00243244,-0
 .00133341,0.00010532,-0.00042471,0.00048798,0.00002345,-0.00003544,-0.
 00004801,0.00004741,0.00021058,-0.00006318,0.00011475,-0.00008673,-0.0
 0002821,-0.00010032,-0.00000776,0.00004885,-0.23703812,-0.14476525,0.0
 0168700,-0.00001505,0.00000105,0.00001157,0.00001974,-0.00001297,0.000
 00132,0.00000659,-0.00000245,-0.00003068,-0.00001361,-0.00000679,0.000
 02673,-0.00000378,-0.00000252,-0.00000226,-0.00000879,-0.00000071,-0.0
 0000091,0.00000364,0.00000353,0.00000259,-0.00000539,-0.00000293,-0.00
 000278,0.00000260,-0.00000130,0.00000348,0.00035119,0.00020209,0.00029
 442,0.00017052,-0.00010047,-0.00014043,-0.00009774,0.00007743,-0.00057
 858,-0.00039249,-0.00155090,0.00036352,-0.00024409,-0.00013908,0.00022
 192,0.00002233,-0.00000816,0.00000898,-0.00004923,0.00001097,0.0000006
 3,0.00000824,-0.00008976,0.00004814,0.00002662,-0.00004585,-0.00007617
 ,0.00001985,-0.00013507,0.00015630,-0.00005960,-0.00008721,0.00000799,
 -0.00001463,-0.00004584,0.00000030,0.00001269,0.00001812,0.00000424,0.
 00003905,0.00001873,0.00000374,-0.00001859,0.00005514,0.00000203,-0.00
 002052,-0.00006299,0.00002423,0.00003939,-0.00000824,0.00002838,0.2229
 7092,0.13995260,0.00000273,0.00000123,0.00001021,0.00000515,-0.0000157
 0,-0.00004175,0.00006648,0.00003168,0.00005236,-0.00004270,0.00000209,
 -0.00002344,-0.00004409,-0.00003598,-0.00003397,0.00002752,0.00000616,
 0.00001909,-0.00000359,-0.00000050,-0.00000025,-0.00016111,-0.00002929
 ,0.00002344,-0.00013490,0.00012064,-0.00017098,0.00084159,0.00135565,0
 .00050369,0.00263768,-0.00277452,-0.00528464,0.03529850,0.01781703,-0.
 00583659,-0.00051088,0.00043751,0.00019937,0.00025026,0.00001143,0.000
 34964,-0.00014059,-0.00003705,0.00001817,-0.00027037,-0.00024845,0.000
 08539,0.00032982,-0.00022662,-0.00027715,-0.00002312,0.00008480,0.0002
 0075,-0.00036053,-0.02056654,-0.03362155,-0.00000240,-0.00000033,0.000
 00372,0.00000260,-0.00000175,-0.00000314,0.00000140,-0.00000584,-0.000
 00640,-0.00000017,0.00000589,0.00000922,-0.00000286,0.00000185,-0.0000
 0135,-0.00000314,-0.00000041,-0.00000195,0.00000350,-0.00000105,0.0000
 0235,-0.00000336,-0.00000175,-0.00000047,0.00000212,0.00000050,-0.0000
 0154,-0.00004366,-0.00016207,0.00027536,0.00000060,0.00014569,0.000078
 51,-0.00032008,0.00081854,0.00011926,-0.00017999,-0.00054196,0.0006742
 0,-0.00005761,0.00018723,-0.00015109,0.00002372,-0.00001029,-0.0000295
 2,-0.00002639,0.00005212,-0.00001458,0.00002002,0.00001352,0.00001070,
 0.00012910,-0.00015591,0.00015961,-0.00001411,0.00022615,-0.00007789,0
 .00000877,0.00011233,-0.00011913,-0.00000707,-0.00000150,-0.00001433,0
 .00001264,-0.00000372,0.00001866,0.00012286,0.00008003,0.00007481,-0.0
 0003585,-0.00005511,-0.00004969,0.00001523,0.00001544,-0.00002167,-0.0
 0005730,-0.00001906,-0.00000819,-0.03735640,0.00336789,0.04290273\\-0.
 00000409,0.00000748,0.00000897,-0.00001726,0.00001347,-0.00000076,0.00
 001644,-0.00002544,0.00000503,-0.00000313,0.00001330,0.00000560,0.0000
 0432,-0.00000318,-0.00000917,-0.00001091,-0.00000252,0.00001422,0.0000
 0016,0.00000507,-0.00000206,0.00000642,-0.00000840,0.00000131,0.000028
 23,-0.00001223,-0.00000390,-0.00001132,0.00001763,0.00000006,0.0000000
 3,0.00000202,0.00000073,-0.00000031,-0.00000281,0.00000310,0.00000059,
 0.00000447,0.00000050,-0.00000958,0.00000228,0.00000448,-0.00000065,0.
 00000367,-0.00000013,0.00000156,0.00000195,-0.00000744,-0.00000992,-0.
 00000384,-0.00000073,-0.00000032,-0.00000396,-0.00000001,-0.00000095,-
 0.00000156,-0.00000494,0.00000235,-0.00000483,0.00000263,0.00000360,-0
 .00000274,-0.00000350,0.00000109,-0.00000095,-0.00000184,-0.00000123,0
 .00000072,0.00000065,0.00000381,0.00000160,-0.00000275,-0.00000086,0.0
 0000101,-0.00000208,-0.00000037,-0.00000176,-0.00000018,-0.00000128,0.
 00000078,0.00000099,0.00000055,0.00000061,0.00000209,0.00000134,0.0000
 0106,-0.00000243,0.00000283,0.00000125,-0.00000231,-0.00000030,0.00000
 054,-0.00000149,-0.00000136,-0.00000202,-0.00000236,-0.00000054,-0.000
 00117,-0.00000041,-0.00000087,-0.00000148,0.00000164,-0.00000121,0.000
 00001,0.00000099,0.00000060,-0.00000105,0.00000120,-0.00000015,-0.0000
 0137,0.00000296,-0.00000262,0.00000081,0.00000051,-0.00000204,0.000000
 28,0.00000089,-0.00000002,0.00000015,-0.00000293,0.00000253,0.00000201
 ,-0.00000424,0.00000066,-0.00000079,0.00000085,0.00000156,0.00000189,-
 0.00000326,-0.00000030,-0.00000027,-0.00000067,0.00000239,-0.00000125,
 0.00000196,0.00000055,-0.00000043,-0.00000176\\\@
 The archive entry for this job was punched.


  THE LARGE PRINT GIVETH,
  AND THE SMALL PRINT TAKETH AWAY.

                     -- TOM WAITS
 Job cpu time:       2 days  3 hours 44 minutes  9.0 seconds.
 Elapsed time:       0 days  2 hours 35 minutes 13.8 seconds.
 File lengths (MBytes):  RWF=   2062 Int=      0 D2E=      0 Chk=     47 Scr=      1
 Normal termination of Gaussian 16 at Wed Jan  8 01:58:34 2025.
