 Entering Gaussian System, Link 0=g16
 Input=gjfs/data_set_12-nBA_dormant-29.gjf
 Output=gjfs/data_set_12-nBA_dormant-29.log
 Initial command:
 /usr/local/intel/g16/l1.exe "/scr/Gau-1112944.inp" -scrdir="/scr/"
 Entering Link 1 = /usr/local/intel/g16/l1.exe PID=   1112946.
  
 Copyright (c) 1988-2019, Gaussian, Inc.  All Rights Reserved.
  
 This is part of the Gaussian(R) 16 program.  It is based on
 the Gaussian(R) 09 system (copyright 2009, Gaussian, Inc.),
 the Gaussian(R) 03 system (copyright 2003, Gaussian, Inc.),
 the Gaussian(R) 98 system (copyright 1998, Gaussian, Inc.),
 the Gaussian(R) 94 system (copyright 1995, Gaussian, Inc.),
 the Gaussian 92(TM) system (copyright 1992, Gaussian, Inc.),
 the Gaussian 90(TM) system (copyright 1990, Gaussian, Inc.),
 the Gaussian 88(TM) system (copyright 1988, Gaussian, Inc.),
 the Gaussian 86(TM) system (copyright 1986, Carnegie Mellon
 University), and the Gaussian 82(TM) system (copyright 1983,
 Carnegie Mellon University). Gaussian is a federally registered
 trademark of Gaussian, Inc.
  
 This software contains proprietary and confidential information,
 including trade secrets, belonging to Gaussian, Inc.
  
 This software is provided under written license and may be
 used, copied, transmitted, or stored only in accord with that
 written license.
  
 The following legend is applicable only to US Government
 contracts under FAR:
  
                    RESTRICTED RIGHTS LEGEND
  
 Use, reproduction and disclosure by the US Government is
 subject to restrictions as set forth in subparagraphs (a)
 and (c) of the Commercial Computer Software - Restricted
 Rights clause in FAR 52.227-19.
  
 Gaussian, Inc.
 340 Quinnipiac St., Bldg. 40, Wallingford CT 06492
  
  
 ---------------------------------------------------------------
 Warning -- This program may not be used in any manner that
 competes with the business of Gaussian, Inc. or will provide
 assistance to any competitor of Gaussian, Inc.  The licensee
 of this program is prohibited from giving any competitor of
 Gaussian, Inc. access to this program.  By using this program,
 the user acknowledges that Gaussian, Inc. is engaged in the
 business of creating and licensing software in the field of
 computational chemistry and represents and warrants to the
 licensee that it is not a competitor of Gaussian, Inc. and that
 it will not use this program in any manner prohibited above.
 ---------------------------------------------------------------
  

 Cite this work as:
 Gaussian 16, Revision C.01,
 M. J. Frisch, G. W. Trucks, H. B. Schlegel, G. E. Scuseria, 
 M. A. Robb, J. R. Cheeseman, G. Scalmani, V. Barone, 
 G. A. Petersson, H. Nakatsuji, X. Li, M. Caricato, A. V. Marenich, 
 J. Bloino, B. G. Janesko, R. Gomperts, B. Mennucci, H. P. Hratchian, 
 J. V. Ortiz, A. F. Izmaylov, J. L. Sonnenberg, D. Williams-Young, 
 F. Ding, F. Lipparini, F. Egidi, J. Goings, B. Peng, A. Petrone, 
 T. Henderson, D. Ranasinghe, V. G. Zakrzewski, J. Gao, N. Rega, 
 G. Zheng, W. Liang, M. Hada, M. Ehara, K. Toyota, R. Fukuda, 
 J. Hasegawa, M. Ishida, T. Nakajima, Y. Honda, O. Kitao, H. Nakai, 
 T. Vreven, K. Throssell, J. A. Montgomery, Jr., J. E. Peralta, 
 F. Ogliaro, M. J. Bearpark, J. J. Heyd, E. N. Brothers, K. N. Kudin, 
 V. N. Staroverov, T. A. Keith, R. Kobayashi, J. Normand, 
 K. Raghavachari, A. P. Rendell, J. C. Burant, S. S. Iyengar, 
 J. Tomasi, M. Cossi, J. M. Millam, M. Klene, C. Adamo, R. Cammi, 
 J. W. Ochterski, R. L. Martin, K. Morokuma, O. Farkas, 
 J. B. Foresman, and D. J. Fox, Gaussian, Inc., Wallingford CT, 2019.
 
 ******************************************
 Gaussian 16:  ES64L-G16RevC.01  3-Jul-2019
                 7-Jan-2025 
 ******************************************
 %nprocshared=20
 Will use up to   20 processors via shared memory.
 %mem=30GB
 %chk=outputs/data_set_12-nBA_dormant-29.chk
 ----------------------------------
 #p M062X/DEF2TZVP opt freq pop=NBO
 ----------------------------------
 1/18=20,19=15,26=3,38=1/1,3;
 2/9=110,12=2,17=6,18=5,40=1/2;
 3/5=44,7=101,11=2,25=1,30=1,71=1,74=-55/1,2,3;
 4//1;
 5/5=2,38=5/2;
 6/7=2,8=2,9=2,10=2,28=1,40=1/1,7;
 7//1,2,3,16;
 1/18=20,19=15,26=3/3(2);
 2/9=110/2;
 99//99;
 2/9=110/2;
 3/5=44,7=101,11=2,25=1,30=1,71=1,74=-55/1,2,3;
 4/5=5,16=3,69=1/1;
 5/5=2,38=5/2;
 7//1,2,3,16;
 1/18=20,19=15,26=3/3(-5);
 2/9=110/2;
 6/7=2,8=2,9=2,10=2,19=2,28=1,40=1/1,7;
 99/9=1/99;
 Leave Link    1 at Tue Jan  7 19:52:10 2025, MaxMem=  4026531840 cpu:               1.0 elap:               0.1
 (Enter /usr/local/intel/g16/l101.exe)
 --------------------------
 data_set_12-nBA_dormant-29
 --------------------------
 Symbolic Z-matrix:
 Charge =  0 Multiplicity = 1
 C                     2.12489  -3.01699  -0.29381 
 C                     1.76728  -1.57647   0.04054 
 C                     2.76883  -0.592    -0.56773 
 O                     3.56697  -0.83621  -1.47627 
 O                     2.66231   0.63525   0.02403 
 C                     3.45615   1.75033  -0.51852 
 C                     3.03362   2.99275   0.25093 
 O                     0.49022  -1.13364  -0.53071 
 N                    -0.66297  -1.38843   0.34518 
 C                    -1.6993   -2.10333  -0.49367 
 C                    -2.01368  -1.40388  -1.83835 
 C                    -2.98559  -2.24317   0.34827 
 C                    -1.15977  -3.51592  -0.78593 
 C                    -1.07528  -0.10802   1.00928 
 C                    -0.03147   0.32358   2.07851 
 C                     0.13232  -0.77472   3.14765 
 C                    -0.45407   1.64244   2.75656 
 C                    -1.45538   1.04654   0.08626 
 C                    -0.5274    1.63425  -0.79377 
 C                    -0.90282   2.70815  -1.61089 
 C                    -2.20797   3.22389  -1.55518 
 C                    -3.13408   2.65795  -0.66719 
 C                    -2.75463   1.57917   0.14529 
 H                     3.13305  -3.24367   0.06888 
 H                     2.10993  -3.17804  -1.37437 
 H                     1.41972  -3.69604   0.18829 
 H                     1.7478   -1.42452   1.12097 
 H                     3.24787   1.83149  -1.58996 
 H                     4.5169    1.51605  -0.38933 
 H                     1.96377   3.17981   0.12173 
 H                     3.58899   3.8628   -0.11402 
 H                     3.23674   2.87213   1.31857 
 H                    -1.08885  -1.19722  -2.38259 
 H                    -2.55046  -0.46289  -1.69958 
 H                    -2.63815  -2.06663  -2.44906 
 H                    -3.5247   -1.29541   0.44089 
 H                    -2.75813  -2.62896   1.34852 
 H                    -3.65613  -2.95203  -0.1481 
 H                    -0.8947   -4.02474   0.14696 
 H                    -0.28007  -3.46854  -1.43104 
 H                    -1.92651  -4.1054   -1.3007 
 H                    -1.96923  -0.3868    1.57859 
 H                     0.92433   0.50556   1.5759 
 H                     0.98483  -0.55588   3.80115 
 H                     0.2743   -1.76012   2.6944 
 H                    -0.7663   -0.82691   3.77706 
 H                    -0.45511   2.48141   2.05465 
 H                     0.23761   1.87928   3.57318 
 H                    -1.4627    1.55779   3.18355 
 H                     0.47755   1.23547  -0.83897 
 H                    -0.17922   3.14276  -2.29408 
 H                    -2.49634   4.0554   -2.19014 
 H                    -4.14342   3.05248  -0.6076 
 H                    -3.47857   1.14986   0.83397 
 
 ITRead=  0  0  0  0  0  0  0  0  0  0  0  0  0  0  0  0  0  0  0  0
 ITRead=  0  0  0  0  0  0  0  0  0  0  0  0  0  0  0  0  0  0  0  0
 ITRead=  0  0  0  0  0  0  0  0  0  0  0  0  0  0
 MicOpt= -1 -1 -1 -1 -1 -1 -1 -1 -1 -1 -1 -1 -1 -1 -1 -1 -1 -1 -1 -1
 MicOpt= -1 -1 -1 -1 -1 -1 -1 -1 -1 -1 -1 -1 -1 -1 -1 -1 -1 -1 -1 -1
 MicOpt= -1 -1 -1 -1 -1 -1 -1 -1 -1 -1 -1 -1 -1 -1
 NAtoms=     54 NQM=       54 NQMF=       0 NMMI=      0 NMMIF=      0
                NMic=       0 NMicF=      0.
                    Isotopes and Nuclear Properties:
 (Nuclear quadrupole moments (NQMom) in fm**2, nuclear magnetic moments (NMagM)
  in nuclear magnetons)

  Atom         1           2           3           4           5           6           7           8           9          10
 IAtWgt=          12          12          12          16          16          12          12          16          14          12
 AtmWgt=  12.0000000  12.0000000  12.0000000  15.9949146  15.9949146  12.0000000  12.0000000  15.9949146  14.0030740  12.0000000
 NucSpn=           0           0           0           0           0           0           0           0           2           0
 AtZEff=  -0.0000000  -0.0000000  -0.0000000  -0.0000000  -0.0000000  -0.0000000  -0.0000000  -0.0000000  -0.0000000  -0.0000000
 NQMom=    0.0000000   0.0000000   0.0000000   0.0000000   0.0000000   0.0000000   0.0000000   0.0000000   2.0440000   0.0000000
 NMagM=    0.0000000   0.0000000   0.0000000   0.0000000   0.0000000   0.0000000   0.0000000   0.0000000   0.4037610   0.0000000
 AtZNuc=   6.0000000   6.0000000   6.0000000   8.0000000   8.0000000   6.0000000   6.0000000   8.0000000   7.0000000   6.0000000

  Atom        11          12          13          14          15          16          17          18          19          20
 IAtWgt=          12          12          12          12          12          12          12          12          12          12
 AtmWgt=  12.0000000  12.0000000  12.0000000  12.0000000  12.0000000  12.0000000  12.0000000  12.0000000  12.0000000  12.0000000
 NucSpn=           0           0           0           0           0           0           0           0           0           0
 AtZEff=  -0.0000000  -0.0000000  -0.0000000  -0.0000000  -0.0000000  -0.0000000  -0.0000000  -0.0000000  -0.0000000  -0.0000000
 NQMom=    0.0000000   0.0000000   0.0000000   0.0000000   0.0000000   0.0000000   0.0000000   0.0000000   0.0000000   0.0000000
 NMagM=    0.0000000   0.0000000   0.0000000   0.0000000   0.0000000   0.0000000   0.0000000   0.0000000   0.0000000   0.0000000
 AtZNuc=   6.0000000   6.0000000   6.0000000   6.0000000   6.0000000   6.0000000   6.0000000   6.0000000   6.0000000   6.0000000

  Atom        21          22          23          24          25          26          27          28          29          30
 IAtWgt=          12          12          12           1           1           1           1           1           1           1
 AtmWgt=  12.0000000  12.0000000  12.0000000   1.0078250   1.0078250   1.0078250   1.0078250   1.0078250   1.0078250   1.0078250
 NucSpn=           0           0           0           1           1           1           1           1           1           1
 AtZEff=  -0.0000000  -0.0000000  -0.0000000  -0.0000000  -0.0000000  -0.0000000  -0.0000000  -0.0000000  -0.0000000  -0.0000000
 NQMom=    0.0000000   0.0000000   0.0000000   0.0000000   0.0000000   0.0000000   0.0000000   0.0000000   0.0000000   0.0000000
 NMagM=    0.0000000   0.0000000   0.0000000   2.7928460   2.7928460   2.7928460   2.7928460   2.7928460   2.7928460   2.7928460
 AtZNuc=   6.0000000   6.0000000   6.0000000   1.0000000   1.0000000   1.0000000   1.0000000   1.0000000   1.0000000   1.0000000

  Atom        31          32          33          34          35          36          37          38          39          40
 IAtWgt=           1           1           1           1           1           1           1           1           1           1
 AtmWgt=   1.0078250   1.0078250   1.0078250   1.0078250   1.0078250   1.0078250   1.0078250   1.0078250   1.0078250   1.0078250
 NucSpn=           1           1           1           1           1           1           1           1           1           1
 AtZEff=  -0.0000000  -0.0000000  -0.0000000  -0.0000000  -0.0000000  -0.0000000  -0.0000000  -0.0000000  -0.0000000  -0.0000000
 NQMom=    0.0000000   0.0000000   0.0000000   0.0000000   0.0000000   0.0000000   0.0000000   0.0000000   0.0000000   0.0000000
 NMagM=    2.7928460   2.7928460   2.7928460   2.7928460   2.7928460   2.7928460   2.7928460   2.7928460   2.7928460   2.7928460
 AtZNuc=   1.0000000   1.0000000   1.0000000   1.0000000   1.0000000   1.0000000   1.0000000   1.0000000   1.0000000   1.0000000

  Atom        41          42          43          44          45          46          47          48          49          50
 IAtWgt=           1           1           1           1           1           1           1           1           1           1
 AtmWgt=   1.0078250   1.0078250   1.0078250   1.0078250   1.0078250   1.0078250   1.0078250   1.0078250   1.0078250   1.0078250
 NucSpn=           1           1           1           1           1           1           1           1           1           1
 AtZEff=  -0.0000000  -0.0000000  -0.0000000  -0.0000000  -0.0000000  -0.0000000  -0.0000000  -0.0000000  -0.0000000  -0.0000000
 NQMom=    0.0000000   0.0000000   0.0000000   0.0000000   0.0000000   0.0000000   0.0000000   0.0000000   0.0000000   0.0000000
 NMagM=    2.7928460   2.7928460   2.7928460   2.7928460   2.7928460   2.7928460   2.7928460   2.7928460   2.7928460   2.7928460
 AtZNuc=   1.0000000   1.0000000   1.0000000   1.0000000   1.0000000   1.0000000   1.0000000   1.0000000   1.0000000   1.0000000

  Atom        51          52          53          54
 IAtWgt=           1           1           1           1
 AtmWgt=   1.0078250   1.0078250   1.0078250   1.0078250
 NucSpn=           1           1           1           1
 AtZEff=  -0.0000000  -0.0000000  -0.0000000  -0.0000000
 NQMom=    0.0000000   0.0000000   0.0000000   0.0000000
 NMagM=    2.7928460   2.7928460   2.7928460   2.7928460
 AtZNuc=   1.0000000   1.0000000   1.0000000   1.0000000
 Leave Link  101 at Tue Jan  7 19:52:11 2025, MaxMem=  4026531840 cpu:              23.6 elap:               1.2
 (Enter /usr/local/intel/g16/l103.exe)

 GradGradGradGradGradGradGradGradGradGradGradGradGradGradGradGradGradGrad
 Berny optimization.
 Initialization pass.
                           ----------------------------
                           !    Initial Parameters    !
                           ! (Angstroms and Degrees)  !
 --------------------------                            --------------------------
 ! Name  Definition              Value          Derivative Info.                !
 --------------------------------------------------------------------------------
 ! R1    R(1,2)                  1.5214         estimate D2E/DX2                !
 ! R2    R(1,24)                 1.0951         estimate D2E/DX2                !
 ! R3    R(1,25)                 1.0926         estimate D2E/DX2                !
 ! R4    R(1,26)                 1.0912         estimate D2E/DX2                !
 ! R5    R(2,3)                  1.5304         estimate D2E/DX2                !
 ! R6    R(2,8)                  1.4674         estimate D2E/DX2                !
 ! R7    R(2,27)                 1.0912         estimate D2E/DX2                !
 ! R8    R(3,4)                  1.2337         estimate D2E/DX2                !
 ! R9    R(3,5)                  1.3666         estimate D2E/DX2                !
 ! R10   R(5,6)                  1.4724         estimate D2E/DX2                !
 ! R11   R(6,7)                  1.5212         estimate D2E/DX2                !
 ! R12   R(6,28)                 1.0945         estimate D2E/DX2                !
 ! R13   R(6,29)                 1.094          estimate D2E/DX2                !
 ! R14   R(7,30)                 1.0937         estimate D2E/DX2                !
 ! R15   R(7,31)                 1.0948         estimate D2E/DX2                !
 ! R16   R(7,32)                 1.0935         estimate D2E/DX2                !
 ! R17   R(8,9)                  1.4704         estimate D2E/DX2                !
 ! R18   R(9,10)                 1.5129         estimate D2E/DX2                !
 ! R19   R(9,14)                 1.5002         estimate D2E/DX2                !
 ! R20   R(10,11)                1.548          estimate D2E/DX2                !
 ! R21   R(10,12)                1.5437         estimate D2E/DX2                !
 ! R22   R(10,13)                1.5401         estimate D2E/DX2                !
 ! R23   R(11,33)                1.0928         estimate D2E/DX2                !
 ! R24   R(11,34)                1.0922         estimate D2E/DX2                !
 ! R25   R(11,35)                1.0964         estimate D2E/DX2                !
 ! R26   R(12,36)                1.0943         estimate D2E/DX2                !
 ! R27   R(12,37)                1.0959         estimate D2E/DX2                !
 ! R28   R(12,38)                1.0948         estimate D2E/DX2                !
 ! R29   R(13,39)                1.0952         estimate D2E/DX2                !
 ! R30   R(13,40)                1.0919         estimate D2E/DX2                !
 ! R31   R(13,41)                1.0956         estimate D2E/DX2                !
 ! R32   R(14,15)                1.5553         estimate D2E/DX2                !
 ! R33   R(14,18)                1.5262         estimate D2E/DX2                !
 ! R34   R(14,42)                1.0959         estimate D2E/DX2                !
 ! R35   R(15,16)                1.5415         estimate D2E/DX2                !
 ! R36   R(15,17)                1.542          estimate D2E/DX2                !
 ! R37   R(15,43)                1.0951         estimate D2E/DX2                !
 ! R38   R(16,44)                1.0962         estimate D2E/DX2                !
 ! R39   R(16,45)                1.0939         estimate D2E/DX2                !
 ! R40   R(16,46)                1.0984         estimate D2E/DX2                !
 ! R41   R(17,47)                1.0939         estimate D2E/DX2                !
 ! R42   R(17,48)                1.0961         estimate D2E/DX2                !
 ! R43   R(17,49)                1.0986         estimate D2E/DX2                !
 ! R44   R(18,19)                1.4075         estimate D2E/DX2                !
 ! R45   R(18,23)                1.4054         estimate D2E/DX2                !
 ! R46   R(19,20)                1.4007         estimate D2E/DX2                !
 ! R47   R(19,50)                1.0821         estimate D2E/DX2                !
 ! R48   R(20,21)                1.4045         estimate D2E/DX2                !
 ! R49   R(20,51)                1.0859         estimate D2E/DX2                !
 ! R50   R(21,22)                1.4023         estimate D2E/DX2                !
 ! R51   R(21,52)                1.0852         estimate D2E/DX2                !
 ! R52   R(22,23)                1.4028         estimate D2E/DX2                !
 ! R53   R(22,53)                1.0853         estimate D2E/DX2                !
 ! R54   R(23,54)                1.0875         estimate D2E/DX2                !
 ! A1    A(2,1,24)             109.852          estimate D2E/DX2                !
 ! A2    A(2,1,25)             110.7126         estimate D2E/DX2                !
 ! A3    A(2,1,26)             109.8898         estimate D2E/DX2                !
 ! A4    A(24,1,25)            108.0359         estimate D2E/DX2                !
 ! A5    A(24,1,26)            108.6489         estimate D2E/DX2                !
 ! A6    A(25,1,26)            109.6547         estimate D2E/DX2                !
 ! A7    A(1,2,3)              111.5851         estimate D2E/DX2                !
 ! A8    A(1,2,8)              113.8744         estimate D2E/DX2                !
 ! A9    A(1,2,27)             110.7083         estimate D2E/DX2                !
 ! A10   A(3,2,8)              102.7496         estimate D2E/DX2                !
 ! A11   A(3,2,27)             108.3983         estimate D2E/DX2                !
 ! A12   A(8,2,27)             109.1402         estimate D2E/DX2                !
 ! A13   A(2,3,4)              126.0659         estimate D2E/DX2                !
 ! A14   A(2,3,5)              110.7656         estimate D2E/DX2                !
 ! A15   A(4,3,5)              123.1651         estimate D2E/DX2                !
 ! A16   A(3,5,6)              118.588          estimate D2E/DX2                !
 ! A17   A(5,6,7)              106.4028         estimate D2E/DX2                !
 ! A18   A(5,6,28)             108.317          estimate D2E/DX2                !
 ! A19   A(5,6,29)             108.4861         estimate D2E/DX2                !
 ! A20   A(7,6,28)             112.4407         estimate D2E/DX2                !
 ! A21   A(7,6,29)             112.6118         estimate D2E/DX2                !
 ! A22   A(28,6,29)            108.4216         estimate D2E/DX2                !
 ! A23   A(6,7,30)             110.5862         estimate D2E/DX2                !
 ! A24   A(6,7,31)             109.8493         estimate D2E/DX2                !
 ! A25   A(6,7,32)             110.6208         estimate D2E/DX2                !
 ! A26   A(30,7,31)            108.7172         estimate D2E/DX2                !
 ! A27   A(30,7,32)            108.4149         estimate D2E/DX2                !
 ! A28   A(31,7,32)            108.5965         estimate D2E/DX2                !
 ! A29   A(2,8,9)              113.4756         estimate D2E/DX2                !
 ! A30   A(8,9,10)             106.7881         estimate D2E/DX2                !
 ! A31   A(8,9,14)             109.3516         estimate D2E/DX2                !
 ! A32   A(10,9,14)            117.4203         estimate D2E/DX2                !
 ! A33   A(9,10,11)            114.033          estimate D2E/DX2                !
 ! A34   A(9,10,12)            108.1308         estimate D2E/DX2                !
 ! A35   A(9,10,13)            107.3777         estimate D2E/DX2                !
 ! A36   A(11,10,12)           110.2114         estimate D2E/DX2                !
 ! A37   A(11,10,13)           108.7078         estimate D2E/DX2                !
 ! A38   A(12,10,13)           108.199          estimate D2E/DX2                !
 ! A39   A(10,11,33)           110.2543         estimate D2E/DX2                !
 ! A40   A(10,11,34)           112.256          estimate D2E/DX2                !
 ! A41   A(10,11,35)           109.0499         estimate D2E/DX2                !
 ! A42   A(33,11,34)           108.4375         estimate D2E/DX2                !
 ! A43   A(33,11,35)           108.5976         estimate D2E/DX2                !
 ! A44   A(34,11,35)           108.1584         estimate D2E/DX2                !
 ! A45   A(10,12,36)           112.2229         estimate D2E/DX2                !
 ! A46   A(10,12,37)           110.9004         estimate D2E/DX2                !
 ! A47   A(10,12,38)           108.7683         estimate D2E/DX2                !
 ! A48   A(36,12,37)           109.2614         estimate D2E/DX2                !
 ! A49   A(36,12,38)           107.3027         estimate D2E/DX2                !
 ! A50   A(37,12,38)           108.2409         estimate D2E/DX2                !
 ! A51   A(10,13,39)           110.4427         estimate D2E/DX2                !
 ! A52   A(10,13,40)           110.7655         estimate D2E/DX2                !
 ! A53   A(10,13,41)           109.7234         estimate D2E/DX2                !
 ! A54   A(39,13,40)           109.1736         estimate D2E/DX2                !
 ! A55   A(39,13,41)           108.6405         estimate D2E/DX2                !
 ! A56   A(40,13,41)           108.0337         estimate D2E/DX2                !
 ! A57   A(9,14,15)            110.8988         estimate D2E/DX2                !
 ! A58   A(9,14,18)            116.5121         estimate D2E/DX2                !
 ! A59   A(9,14,42)            103.7119         estimate D2E/DX2                !
 ! A60   A(15,14,18)           111.8989         estimate D2E/DX2                !
 ! A61   A(15,14,42)           105.1239         estimate D2E/DX2                !
 ! A62   A(18,14,42)           107.6658         estimate D2E/DX2                !
 ! A63   A(14,15,16)           110.5119         estimate D2E/DX2                !
 ! A64   A(14,15,17)           110.8366         estimate D2E/DX2                !
 ! A65   A(14,15,43)           108.4412         estimate D2E/DX2                !
 ! A66   A(16,15,17)           109.4836         estimate D2E/DX2                !
 ! A67   A(16,15,43)           110.1202         estimate D2E/DX2                !
 ! A68   A(17,15,43)           107.3903         estimate D2E/DX2                !
 ! A69   A(15,16,44)           110.7235         estimate D2E/DX2                !
 ! A70   A(15,16,45)           111.6074         estimate D2E/DX2                !
 ! A71   A(15,16,46)           110.1437         estimate D2E/DX2                !
 ! A72   A(44,16,45)           109.0204         estimate D2E/DX2                !
 ! A73   A(44,16,46)           107.7053         estimate D2E/DX2                !
 ! A74   A(45,16,46)           107.507          estimate D2E/DX2                !
 ! A75   A(15,17,47)           111.9678         estimate D2E/DX2                !
 ! A76   A(15,17,48)           109.845          estimate D2E/DX2                !
 ! A77   A(15,17,49)           110.8933         estimate D2E/DX2                !
 ! A78   A(47,17,48)           108.2376         estimate D2E/DX2                !
 ! A79   A(47,17,49)           107.917          estimate D2E/DX2                !
 ! A80   A(48,17,49)           107.8462         estimate D2E/DX2                !
 ! A81   A(14,18,19)           121.9922         estimate D2E/DX2                !
 ! A82   A(14,18,23)           119.4398         estimate D2E/DX2                !
 ! A83   A(19,18,23)           118.5238         estimate D2E/DX2                !
 ! A84   A(18,19,20)           120.543          estimate D2E/DX2                !
 ! A85   A(18,19,50)           118.982          estimate D2E/DX2                !
 ! A86   A(20,19,50)           120.4703         estimate D2E/DX2                !
 ! A87   A(19,20,21)           120.4961         estimate D2E/DX2                !
 ! A88   A(19,20,51)           119.6879         estimate D2E/DX2                !
 ! A89   A(21,20,51)           119.8157         estimate D2E/DX2                !
 ! A90   A(20,21,22)           119.3823         estimate D2E/DX2                !
 ! A91   A(20,21,52)           120.3368         estimate D2E/DX2                !
 ! A92   A(22,21,52)           120.2804         estimate D2E/DX2                !
 ! A93   A(21,22,23)           119.8989         estimate D2E/DX2                !
 ! A94   A(21,22,53)           120.1477         estimate D2E/DX2                !
 ! A95   A(23,22,53)           119.9534         estimate D2E/DX2                !
 ! A96   A(18,23,22)           121.1429         estimate D2E/DX2                !
 ! A97   A(18,23,54)           119.4975         estimate D2E/DX2                !
 ! A98   A(22,23,54)           119.3595         estimate D2E/DX2                !
 ! D1    D(24,1,2,3)            58.0671         estimate D2E/DX2                !
 ! D2    D(24,1,2,8)           173.8301         estimate D2E/DX2                !
 ! D3    D(24,1,2,27)          -62.7585         estimate D2E/DX2                !
 ! D4    D(25,1,2,3)           -61.171          estimate D2E/DX2                !
 ! D5    D(25,1,2,8)            54.592          estimate D2E/DX2                !
 ! D6    D(25,1,2,27)          178.0034         estimate D2E/DX2                !
 ! D7    D(26,1,2,3)           177.55           estimate D2E/DX2                !
 ! D8    D(26,1,2,8)           -66.687          estimate D2E/DX2                !
 ! D9    D(26,1,2,27)           56.7243         estimate D2E/DX2                !
 ! D10   D(1,2,3,4)             17.2401         estimate D2E/DX2                !
 ! D11   D(1,2,3,5)           -163.4161         estimate D2E/DX2                !
 ! D12   D(8,2,3,4)           -105.1567         estimate D2E/DX2                !
 ! D13   D(8,2,3,5)             74.1872         estimate D2E/DX2                !
 ! D14   D(27,2,3,4)           139.4049         estimate D2E/DX2                !
 ! D15   D(27,2,3,5)           -41.2512         estimate D2E/DX2                !
 ! D16   D(1,2,8,9)             89.3139         estimate D2E/DX2                !
 ! D17   D(3,2,8,9)           -149.8472         estimate D2E/DX2                !
 ! D18   D(27,2,8,9)           -34.9454         estimate D2E/DX2                !
 ! D19   D(2,3,5,6)           -174.1579         estimate D2E/DX2                !
 ! D20   D(4,3,5,6)              5.2085         estimate D2E/DX2                !
 ! D21   D(3,5,6,7)            174.8611         estimate D2E/DX2                !
 ! D22   D(3,5,6,28)            53.756          estimate D2E/DX2                !
 ! D23   D(3,5,6,29)           -63.7383         estimate D2E/DX2                !
 ! D24   D(5,6,7,30)           -59.6614         estimate D2E/DX2                !
 ! D25   D(5,6,7,31)          -179.6632         estimate D2E/DX2                !
 ! D26   D(5,6,7,32)            60.463          estimate D2E/DX2                !
 ! D27   D(28,6,7,30)           58.7646         estimate D2E/DX2                !
 ! D28   D(28,6,7,31)          -61.2372         estimate D2E/DX2                !
 ! D29   D(28,6,7,32)          178.8889         estimate D2E/DX2                !
 ! D30   D(29,6,7,30)         -178.3895         estimate D2E/DX2                !
 ! D31   D(29,6,7,31)           61.6087         estimate D2E/DX2                !
 ! D32   D(29,6,7,32)          -58.2651         estimate D2E/DX2                !
 ! D33   D(2,8,9,10)          -129.1444         estimate D2E/DX2                !
 ! D34   D(2,8,9,14)           102.8473         estimate D2E/DX2                !
 ! D35   D(8,9,10,11)          -50.6752         estimate D2E/DX2                !
 ! D36   D(8,9,10,12)         -173.6353         estimate D2E/DX2                !
 ! D37   D(8,9,10,13)           69.8244         estimate D2E/DX2                !
 ! D38   D(14,9,10,11)          72.448          estimate D2E/DX2                !
 ! D39   D(14,9,10,12)         -50.5121         estimate D2E/DX2                !
 ! D40   D(14,9,10,13)        -167.0524         estimate D2E/DX2                !
 ! D41   D(8,9,14,15)          -71.2642         estimate D2E/DX2                !
 ! D42   D(8,9,14,18)           58.2768         estimate D2E/DX2                !
 ! D43   D(8,9,14,42)          176.3624         estimate D2E/DX2                !
 ! D44   D(10,9,14,15)         166.9273         estimate D2E/DX2                !
 ! D45   D(10,9,14,18)         -63.5317         estimate D2E/DX2                !
 ! D46   D(10,9,14,42)          54.5539         estimate D2E/DX2                !
 ! D47   D(9,10,11,33)          51.4535         estimate D2E/DX2                !
 ! D48   D(9,10,11,34)         -69.5614         estimate D2E/DX2                !
 ! D49   D(9,10,11,35)         170.6005         estimate D2E/DX2                !
 ! D50   D(12,10,11,33)        173.2732         estimate D2E/DX2                !
 ! D51   D(12,10,11,34)         52.2583         estimate D2E/DX2                !
 ! D52   D(12,10,11,35)        -67.5797         estimate D2E/DX2                !
 ! D53   D(13,10,11,33)        -68.2994         estimate D2E/DX2                !
 ! D54   D(13,10,11,34)        170.6856         estimate D2E/DX2                !
 ! D55   D(13,10,11,35)         50.8476         estimate D2E/DX2                !
 ! D56   D(9,10,12,36)          74.4109         estimate D2E/DX2                !
 ! D57   D(9,10,12,37)         -48.1003         estimate D2E/DX2                !
 ! D58   D(9,10,12,38)        -167.0237         estimate D2E/DX2                !
 ! D59   D(11,10,12,36)        -50.8436         estimate D2E/DX2                !
 ! D60   D(11,10,12,37)       -173.3548         estimate D2E/DX2                !
 ! D61   D(11,10,12,38)         67.7218         estimate D2E/DX2                !
 ! D62   D(13,10,12,36)       -169.5825         estimate D2E/DX2                !
 ! D63   D(13,10,12,37)         67.9063         estimate D2E/DX2                !
 ! D64   D(13,10,12,38)        -51.0172         estimate D2E/DX2                !
 ! D65   D(9,10,13,39)          54.2178         estimate D2E/DX2                !
 ! D66   D(9,10,13,40)         -66.8594         estimate D2E/DX2                !
 ! D67   D(9,10,13,41)         173.9539         estimate D2E/DX2                !
 ! D68   D(11,10,13,39)        178.0332         estimate D2E/DX2                !
 ! D69   D(11,10,13,40)         56.956          estimate D2E/DX2                !
 ! D70   D(11,10,13,41)        -62.2307         estimate D2E/DX2                !
 ! D71   D(12,10,13,39)        -62.2777         estimate D2E/DX2                !
 ! D72   D(12,10,13,40)        176.645          estimate D2E/DX2                !
 ! D73   D(12,10,13,41)         57.4583         estimate D2E/DX2                !
 ! D74   D(9,14,15,16)         -58.6445         estimate D2E/DX2                !
 ! D75   D(9,14,15,17)         179.7933         estimate D2E/DX2                !
 ! D76   D(9,14,15,43)          62.1467         estimate D2E/DX2                !
 ! D77   D(18,14,15,16)        169.4064         estimate D2E/DX2                !
 ! D78   D(18,14,15,17)         47.8442         estimate D2E/DX2                !
 ! D79   D(18,14,15,43)        -69.8025         estimate D2E/DX2                !
 ! D80   D(42,14,15,16)         52.8269         estimate D2E/DX2                !
 ! D81   D(42,14,15,17)        -68.7354         estimate D2E/DX2                !
 ! D82   D(42,14,15,43)        173.618          estimate D2E/DX2                !
 ! D83   D(9,14,18,19)         -63.5448         estimate D2E/DX2                !
 ! D84   D(9,14,18,23)         118.9099         estimate D2E/DX2                !
 ! D85   D(15,14,18,19)         65.5175         estimate D2E/DX2                !
 ! D86   D(15,14,18,23)       -112.0279         estimate D2E/DX2                !
 ! D87   D(42,14,18,19)       -179.4498         estimate D2E/DX2                !
 ! D88   D(42,14,18,23)          3.0049         estimate D2E/DX2                !
 ! D89   D(14,15,16,44)        170.166          estimate D2E/DX2                !
 ! D90   D(14,15,16,45)         48.5222         estimate D2E/DX2                !
 ! D91   D(14,15,16,46)        -70.8135         estimate D2E/DX2                !
 ! D92   D(17,15,16,44)        -67.4755         estimate D2E/DX2                !
 ! D93   D(17,15,16,45)        170.8806         estimate D2E/DX2                !
 ! D94   D(17,15,16,46)         51.545          estimate D2E/DX2                !
 ! D95   D(43,15,16,44)         50.3805         estimate D2E/DX2                !
 ! D96   D(43,15,16,45)        -71.2633         estimate D2E/DX2                !
 ! D97   D(43,15,16,46)        169.401          estimate D2E/DX2                !
 ! D98   D(14,15,17,47)        -65.3128         estimate D2E/DX2                !
 ! D99   D(14,15,17,48)        174.3993         estimate D2E/DX2                !
 ! D100  D(14,15,17,49)         55.2877         estimate D2E/DX2                !
 ! D101  D(16,15,17,47)        172.5228         estimate D2E/DX2                !
 ! D102  D(16,15,17,48)         52.2349         estimate D2E/DX2                !
 ! D103  D(16,15,17,49)        -66.8766         estimate D2E/DX2                !
 ! D104  D(43,15,17,47)         52.9737         estimate D2E/DX2                !
 ! D105  D(43,15,17,48)        -67.3142         estimate D2E/DX2                !
 ! D106  D(43,15,17,49)        173.5742         estimate D2E/DX2                !
 ! D107  D(14,18,19,20)       -178.8716         estimate D2E/DX2                !
 ! D108  D(14,18,19,50)          1.9126         estimate D2E/DX2                !
 ! D109  D(23,18,19,20)         -1.3046         estimate D2E/DX2                !
 ! D110  D(23,18,19,50)        179.4796         estimate D2E/DX2                !
 ! D111  D(14,18,23,22)        178.6911         estimate D2E/DX2                !
 ! D112  D(14,18,23,54)         -1.1694         estimate D2E/DX2                !
 ! D113  D(19,18,23,22)          1.0605         estimate D2E/DX2                !
 ! D114  D(19,18,23,54)       -178.8            estimate D2E/DX2                !
 ! D115  D(18,19,20,21)          0.6291         estimate D2E/DX2                !
 ! D116  D(18,19,20,51)       -179.2099         estimate D2E/DX2                !
 ! D117  D(50,19,20,21)        179.8331         estimate D2E/DX2                !
 ! D118  D(50,19,20,51)         -0.0059         estimate D2E/DX2                !
 ! D119  D(19,20,21,22)          0.3217         estimate D2E/DX2                !
 ! D120  D(19,20,21,52)       -179.9411         estimate D2E/DX2                !
 ! D121  D(51,20,21,22)       -179.8396         estimate D2E/DX2                !
 ! D122  D(51,20,21,52)         -0.1024         estimate D2E/DX2                !
 ! D123  D(20,21,22,23)         -0.5682         estimate D2E/DX2                !
 ! D124  D(20,21,22,53)        179.4555         estimate D2E/DX2                !
 ! D125  D(52,21,22,23)        179.6945         estimate D2E/DX2                !
 ! D126  D(52,21,22,53)         -0.2819         estimate D2E/DX2                !
 ! D127  D(21,22,23,18)         -0.1307         estimate D2E/DX2                !
 ! D128  D(21,22,23,54)        179.73           estimate D2E/DX2                !
 ! D129  D(53,22,23,18)        179.8457         estimate D2E/DX2                !
 ! D130  D(53,22,23,54)         -0.2936         estimate D2E/DX2                !
 --------------------------------------------------------------------------------
 Trust Radius=3.00D-01 FncErr=1.00D-07 GrdErr=1.00D-06 EigMax=2.50D+02 EigMin=1.00D-04
 Number of steps in this run=    292 maximum allowed number of steps=    324.
 GradGradGradGradGradGradGradGradGradGradGradGradGradGradGradGradGradGrad

 Leave Link  103 at Tue Jan  7 19:52:11 2025, MaxMem=  4026531840 cpu:               0.4 elap:               0.0
 (Enter /usr/local/intel/g16/l202.exe)
 Stoichiometry    C19H31NO3
 Framework group  C1[X(C19H31NO3)]
 Deg. of freedom   156
 Full point group                 C1      NOp   1
 Largest Abelian subgroup         C1      NOp   1
 Largest concise Abelian subgroup C1      NOp   1
                         Standard orientation:                         
 ---------------------------------------------------------------------
 Center     Atomic      Atomic             Coordinates (Angstroms)
 Number     Number       Type             X           Y           Z
 ---------------------------------------------------------------------
      1          6           0        2.124886   -3.016985   -0.293805
      2          6           0        1.767276   -1.576466    0.040536
      3          6           0        2.768833   -0.592001   -0.567727
      4          8           0        3.566969   -0.836211   -1.476266
      5          8           0        2.662310    0.635249    0.024032
      6          6           0        3.456148    1.750331   -0.518523
      7          6           0        3.033625    2.992746    0.250925
      8          8           0        0.490222   -1.133641   -0.530713
      9          7           0       -0.662969   -1.388430    0.345182
     10          6           0       -1.699300   -2.103329   -0.493667
     11          6           0       -2.013684   -1.403878   -1.838348
     12          6           0       -2.985586   -2.243175    0.348269
     13          6           0       -1.159765   -3.515923   -0.785927
     14          6           0       -1.075281   -0.108016    1.009278
     15          6           0       -0.031465    0.323581    2.078514
     16          6           0        0.132322   -0.774720    3.147649
     17          6           0       -0.454065    1.642443    2.756564
     18          6           0       -1.455376    1.046539    0.086261
     19          6           0       -0.527395    1.634246   -0.793773
     20          6           0       -0.902815    2.708154   -1.610888
     21          6           0       -2.207974    3.223891   -1.555181
     22          6           0       -3.134083    2.657952   -0.667187
     23          6           0       -2.754632    1.579169    0.145289
     24          1           0        3.133048   -3.243673    0.068877
     25          1           0        2.109934   -3.178039   -1.374365
     26          1           0        1.419723   -3.696040    0.188290
     27          1           0        1.747796   -1.424520    1.120971
     28          1           0        3.247865    1.831488   -1.589955
     29          1           0        4.516903    1.516051   -0.389329
     30          1           0        1.963770    3.179809    0.121725
     31          1           0        3.588989    3.862797   -0.114019
     32          1           0        3.236738    2.872134    1.318574
     33          1           0       -1.088852   -1.197215   -2.382585
     34          1           0       -2.550456   -0.462886   -1.699580
     35          1           0       -2.638151   -2.066629   -2.449056
     36          1           0       -3.524696   -1.295409    0.440889
     37          1           0       -2.758134   -2.628962    1.348520
     38          1           0       -3.656132   -2.952030   -0.148104
     39          1           0       -0.894701   -4.024742    0.146963
     40          1           0       -0.280074   -3.468535   -1.431037
     41          1           0       -1.926509   -4.105398   -1.300697
     42          1           0       -1.969228   -0.386804    1.578588
     43          1           0        0.924326    0.505563    1.575900
     44          1           0        0.984832   -0.555875    3.801153
     45          1           0        0.274297   -1.760122    2.694400
     46          1           0       -0.766301   -0.826908    3.777062
     47          1           0       -0.455108    2.481406    2.054647
     48          1           0        0.237605    1.879278    3.573177
     49          1           0       -1.462702    1.557785    3.183553
     50          1           0        0.477546    1.235466   -0.838971
     51          1           0       -0.179223    3.142762   -2.294082
     52          1           0       -2.496340    4.055404   -2.190136
     53          1           0       -4.143424    3.052484   -0.607595
     54          1           0       -3.478574    1.149858    0.833968
 ---------------------------------------------------------------------
 Rotational constants (GHZ):           0.2798875           0.2487179           0.1857213
 Leave Link  202 at Tue Jan  7 19:52:11 2025, MaxMem=  4026531840 cpu:               0.1 elap:               0.0
 (Enter /usr/local/intel/g16/l301.exe)
 Standard basis: def2TZVP (5D, 7F)
 Ernie: Thresh=  0.10000D-02 Tol=  0.10000D-05 Strict=F.
 There are  1014 symmetry adapted cartesian basis functions of A   symmetry.
 There are   899 symmetry adapted basis functions of A   symmetry.
   899 basis functions,  1421 primitive gaussians,  1014 cartesian basis functions
    88 alpha electrons       88 beta electrons
       nuclear repulsion energy      2207.6615880410 Hartrees.
 IExCor= 4336 DFT=T Ex+Corr=M062X ExCW=0 ScaHFX=  0.540000
 ScaDFX=  1.000000  1.000000  1.000000  1.000000 ScalE2=  1.000000  1.000000
 IRadAn=      5 IRanWt=     -1 IRanGd=            0 ICorTp=0 IEmpDi=  4
 NAtoms=   54 NActive=   54 NUniq=   54 SFac= 1.00D+00 NAtFMM=   60 NAOKFM=F Big=F
 Integral buffers will be    131072 words long.
 Raffenetti 2 integral format.
 Two-electron integral symmetry is turned on.
 Leave Link  301 at Tue Jan  7 19:52:11 2025, MaxMem=  4026531840 cpu:               1.3 elap:               0.1
 (Enter /usr/local/intel/g16/l302.exe)
 NPDir=0 NMtPBC=     1 NCelOv=     1 NCel=       1 NClECP=     1 NCelD=      1
         NCelK=      1 NCelE2=     1 NClLst=     1 CellRange=     0.0.
 One-electron integrals computed using PRISM.
 One-electron integral symmetry used in STVInt
   1 Symmetry operations used in ECPInt.
 ECPInt:  NShTT=   71253 NPrTT=  209580 LenC2=   64273 LenP2D=  134449.
 LDataN:  DoStor=T MaxTD1= 6 Len=  172
 NBasis=   899 RedAO= T EigKep=  5.99D-06  NBF=   899
 NBsUse=   899 1.00D-06 EigRej= -1.00D+00 NBFU=   899
 Precomputing XC quadrature grid using
 IXCGrd= 4 IRadAn=           5 IRanWt=          -1 IRanGd=           0 AccXCQ= 0.00D+00.
 Generated NRdTot=       0 NPtTot=           0 NUsed=           0 NTot=          32
 NSgBfM=  1006  1006  1006  1006  1006 MxSgAt=    54 MxSgA2=    54.
 Leave Link  302 at Tue Jan  7 19:52:14 2025, MaxMem=  4026531840 cpu:              58.8 elap:               2.9
 (Enter /usr/local/intel/g16/l303.exe)
 DipDrv:  MaxL=1.
 Leave Link  303 at Tue Jan  7 19:52:15 2025, MaxMem=  4026531840 cpu:               6.4 elap:               0.4
 (Enter /usr/local/intel/g16/l401.exe)
 ExpMin= 9.52D-02 ExpMax= 2.70D+04 ExpMxC= 9.22D+02 IAcc=3 IRadAn=         5 AccDes= 0.00D+00
 Harris functional with IExCor= 1009 and IRadAn=       5 diagonalized for initial guess.
 HarFok:  IExCor= 1009 AccDes= 0.00D+00 IRadAn=         5 IDoV= 1 UseB2=F ITyADJ=14
 ICtDFT=  3500011 ScaDFX=  1.000000  1.000000  1.000000  1.000000
 FoFCou: FMM=F IPFlag=           0 FMFlag=      100000 FMFlg1=           0
         NFxFlg=           0 DoJE=T BraDBF=F KetDBF=T FulRan=T
         wScrn=  0.000000 ICntrl=       500 IOpCl=  0 I1Cent=   200000004 NGrid=           0
         NMat0=    1 NMatS0=      1 NMatT0=    0 NMatD0=    1 NMtDS0=    0 NMtDT0=    0
 Petite list used in FoFCou.
 Harris En= -1022.63642992793    
 JPrj=0 DoOrth=F DoCkMO=F.
 Leave Link  401 at Tue Jan  7 19:52:24 2025, MaxMem=  4026531840 cpu:             180.2 elap:               9.0
 (Enter /usr/local/intel/g16/l502.exe)
 Integral symmetry usage will be decided dynamically.
 Closed shell SCF:
 Using DIIS extrapolation, IDIIS=  1040.
 NGot=  4026531840 LenX=  4024444726 LenY=  4023415516
 Requested convergence on RMS density matrix=1.00D-08 within 128 cycles.
 Requested convergence on MAX density matrix=1.00D-06.
 Requested convergence on             energy=1.00D-06.
 No special actions if energy rises.
 Fock matrices will be formed incrementally for  20 cycles.
 Integral accuracy reduced to 1.0D-05 until final iterations.

 Cycle   1  Pass 0  IDiag  1:
 FoFJK:  IHMeth= 1 ICntrl=       0 DoSepK=F KAlg= 0 I1Cent=           0 FoldK=F
 IRaf= 830000000 NMat=       1 IRICut=       1 DoRegI=T DoRafI=F ISym2E= 0 IDoP0=0 IntGTp=1.
 FoFCou: FMM=F IPFlag=           0 FMFlag=      100000 FMFlg1=           0
         NFxFlg=           0 DoJE=F BraDBF=F KetDBF=F FulRan=T
         wScrn=  0.000000 ICntrl=         0 IOpCl=  0 I1Cent=           0 NGrid=           0
         NMat0=    1 NMatS0=      1 NMatT0=    0 NMatD0=    1 NMtDS0=    0 NMtDT0=    0
 Symmetry not used in FoFCou.
 E= -1022.24491922564    
 DIIS: error= 1.84D-02 at cycle   1 NSaved=   1.
 NSaved= 1 IEnMin= 1 EnMin= -1022.24491922564     IErMin= 1 ErrMin= 1.84D-02
 ErrMax= 1.84D-02  0.00D+00 EMaxC= 1.00D-01 BMatC= 8.97D-01 BMatP= 8.97D-01
 IDIUse=3 WtCom= 8.16D-01 WtEn= 1.84D-01
 Coeff-Com:  0.100D+01
 Coeff-En:   0.100D+01
 Coeff:      0.100D+01
 Gap=     0.399 Goal=   None    Shift=    0.000
 GapD=    0.399 DampG=1.000 DampE=0.500 DampFc=0.5000 IDamp=-1.
 Damping current iteration by 5.00D-01
 RMSDP=2.48D-03 MaxDP=1.88D-01              OVMax= 1.89D-01

 Cycle   2  Pass 0  IDiag  1:
 RMSU=  1.24D-03    CP:  9.82D-01
 E= -1022.62189241207     Delta-E=       -0.376973186427 Rises=F Damp=T
 DIIS: error= 4.17D-03 at cycle   2 NSaved=   2.
 NSaved= 2 IEnMin= 2 EnMin= -1022.62189241207     IErMin= 2 ErrMin= 4.17D-03
 ErrMax= 4.17D-03  0.00D+00 EMaxC= 1.00D-01 BMatC= 6.97D-02 BMatP= 8.97D-01
 IDIUse=3 WtCom= 9.58D-01 WtEn= 4.17D-02
 Coeff-Com: -0.726D-01 0.107D+01
 Coeff-En:   0.000D+00 0.100D+01
 Coeff:     -0.696D-01 0.107D+01
 Gap=     0.320 Goal=   None    Shift=    0.000
 RMSDP=1.33D-03 MaxDP=1.34D-01 DE=-3.77D-01 OVMax= 1.23D-01

 Cycle   3  Pass 0  IDiag  1:
 RMSU=  1.06D-03    CP:  9.83D-01  1.66D+00
 E= -1022.97029064406     Delta-E=       -0.348398231988 Rises=F Damp=F
 DIIS: error= 5.52D-03 at cycle   3 NSaved=   3.
 NSaved= 3 IEnMin= 3 EnMin= -1022.97029064406     IErMin= 2 ErrMin= 4.17D-03
 ErrMax= 5.52D-03  0.00D+00 EMaxC= 1.00D-01 BMatC= 4.17D-02 BMatP= 6.97D-02
 IDIUse=3 WtCom= 9.45D-01 WtEn= 5.52D-02
 Coeff-Com: -0.914D-01 0.489D+00 0.603D+00
 Coeff-En:   0.000D+00 0.000D+00 0.100D+01
 Coeff:     -0.864D-01 0.462D+00 0.625D+00
 Gap=     0.305 Goal=   None    Shift=    0.000
 RMSDP=3.55D-04 MaxDP=2.61D-02 DE=-3.48D-01 OVMax= 7.03D-02

 Cycle   4  Pass 0  IDiag  1:
 RMSU=  3.17D-04    CP:  9.87D-01  1.78D+00  9.84D-01
 E= -1022.99261646853     Delta-E=       -0.022325824470 Rises=F Damp=F
 DIIS: error= 2.63D-03 at cycle   4 NSaved=   4.
 NSaved= 4 IEnMin= 4 EnMin= -1022.99261646853     IErMin= 4 ErrMin= 2.63D-03
 ErrMax= 2.63D-03  0.00D+00 EMaxC= 1.00D-01 BMatC= 1.09D-02 BMatP= 4.17D-02
 IDIUse=3 WtCom= 9.74D-01 WtEn= 2.63D-02
 Coeff-Com: -0.349D-01 0.999D-01 0.364D+00 0.571D+00
 Coeff-En:   0.000D+00 0.000D+00 0.217D+00 0.783D+00
 Coeff:     -0.340D-01 0.973D-01 0.360D+00 0.577D+00
 Gap=     0.299 Goal=   None    Shift=    0.000
 RMSDP=2.14D-04 MaxDP=2.46D-02 DE=-2.23D-02 OVMax= 2.24D-02

 Cycle   5  Pass 0  IDiag  1:
 RMSU=  1.82D-04    CP:  9.88D-01  1.84D+00  1.07D+00  9.73D-01
 E= -1023.00036609011     Delta-E=       -0.007749621583 Rises=F Damp=F
 DIIS: error= 4.07D-04 at cycle   5 NSaved=   5.
 NSaved= 5 IEnMin= 5 EnMin= -1023.00036609011     IErMin= 5 ErrMin= 4.07D-04
 ErrMax= 4.07D-04  0.00D+00 EMaxC= 1.00D-01 BMatC= 3.00D-04 BMatP= 1.09D-02
 IDIUse=3 WtCom= 9.96D-01 WtEn= 4.07D-03
 Coeff-Com: -0.102D-01 0.210D-01 0.127D+00 0.253D+00 0.609D+00
 Coeff-En:   0.000D+00 0.000D+00 0.000D+00 0.000D+00 0.100D+01
 Coeff:     -0.101D-01 0.209D-01 0.127D+00 0.252D+00 0.610D+00
 Gap=     0.299 Goal=   None    Shift=    0.000
 RMSDP=7.13D-05 MaxDP=1.03D-02 DE=-7.75D-03 OVMax= 4.53D-03

 Cycle   6  Pass 0  IDiag  1:
 RMSU=  4.09D-05    CP:  9.89D-01  1.86D+00  1.10D+00  1.06D+00  1.18D+00
 E= -1023.00058675529     Delta-E=       -0.000220665177 Rises=F Damp=F
 DIIS: error= 1.15D-04 at cycle   6 NSaved=   6.
 NSaved= 6 IEnMin= 6 EnMin= -1023.00058675529     IErMin= 6 ErrMin= 1.15D-04
 ErrMax= 1.15D-04  0.00D+00 EMaxC= 1.00D-01 BMatC= 3.51D-05 BMatP= 3.00D-04
 IDIUse=3 WtCom= 9.99D-01 WtEn= 1.15D-03
 Coeff-Com: -0.952D-03-0.664D-03 0.216D-01 0.577D-01 0.293D+00 0.629D+00
 Coeff-En:   0.000D+00 0.000D+00 0.000D+00 0.000D+00 0.000D+00 0.100D+01
 Coeff:     -0.951D-03-0.663D-03 0.216D-01 0.577D-01 0.293D+00 0.629D+00
 Gap=     0.299 Goal=   None    Shift=    0.000
 RMSDP=1.17D-04 MaxDP=1.44D-02 DE=-2.21D-04 OVMax= 1.07D-03

 Cycle   7  Pass 0  IDiag  1:
 RMSU=  3.22D-05    CP:  9.91D-01  1.91D+00  1.14D+00  1.20D+00  1.55D+00
                    CP:  1.38D+00
 E= -1023.00061869609     Delta-E=       -0.000031940807 Rises=F Damp=F
 DIIS: error= 3.63D-05 at cycle   7 NSaved=   7.
 NSaved= 7 IEnMin= 7 EnMin= -1023.00061869609     IErMin= 7 ErrMin= 3.63D-05
 ErrMax= 3.63D-05  0.00D+00 EMaxC= 1.00D-01 BMatC= 2.15D-06 BMatP= 3.51D-05
 IDIUse=1 WtCom= 1.00D+00 WtEn= 0.00D+00
 Coeff-Com:  0.879D-03-0.271D-02-0.588D-02-0.842D-02 0.417D-01 0.205D+00
 Coeff-Com:  0.769D+00
 Coeff:      0.879D-03-0.271D-02-0.588D-02-0.842D-02 0.417D-01 0.205D+00
 Coeff:      0.769D+00
 Gap=     0.299 Goal=   None    Shift=    0.000
 RMSDP=1.26D-04 MaxDP=1.51D-02 DE=-3.19D-05 OVMax= 4.28D-04

 Cycle   8  Pass 0  IDiag  1:
 RMSU=  2.33D-05    CP:  9.93D-01  1.96D+00  1.19D+00  1.35D+00  1.93D+00
                    CP:  1.86D+00  2.00D+00
 E= -1023.00062119048     Delta-E=       -0.000002494382 Rises=F Damp=F
 DIIS: error= 4.17D-05 at cycle   8 NSaved=   8.
 NSaved= 8 IEnMin= 8 EnMin= -1023.00062119048     IErMin= 7 ErrMin= 3.63D-05
 ErrMax= 4.17D-05  0.00D+00 EMaxC= 1.00D-01 BMatC= 8.31D-07 BMatP= 2.15D-06
 IDIUse=1 WtCom= 1.00D+00 WtEn= 0.00D+00
 Coeff-Com:  0.569D-03-0.138D-02-0.505D-02-0.110D-01-0.764D-02 0.398D-01
 Coeff-Com:  0.404D+00 0.580D+00
 Coeff:      0.569D-03-0.138D-02-0.505D-02-0.110D-01-0.764D-02 0.398D-01
 Coeff:      0.404D+00 0.580D+00
 Gap=     0.299 Goal=   None    Shift=    0.000
 RMSDP=1.19D-04 MaxDP=1.35D-02 DE=-2.49D-06 OVMax= 1.62D-04

 Cycle   9  Pass 0  IDiag  1:
 RMSU=  1.93D-05    CP:  9.95D-01  2.01D+00  1.24D+00  1.47D+00  2.24D+00
                    CP:  2.17D+00  3.00D+00  2.42D+00
 E= -1023.00061716143     Delta-E=        0.000004029047 Rises=F Damp=F
 DIIS: error= 5.00D-05 at cycle   9 NSaved=   9.
 NSaved= 9 IEnMin= 8 EnMin= -1023.00062119048     IErMin= 7 ErrMin= 3.63D-05
 ErrMax= 5.00D-05  0.00D+00 EMaxC= 1.00D-01 BMatC= 8.23D-07 BMatP= 8.31D-07
 IDIUse=1 WtCom= 1.00D+00 WtEn= 0.00D+00
 Coeff-Com:  0.702D-03-0.166D-02-0.642D-02-0.140D-01-0.131D-01 0.403D-01
 Coeff-Com:  0.495D+00 0.761D+00-0.262D+00
 Coeff:      0.702D-03-0.166D-02-0.642D-02-0.140D-01-0.131D-01 0.403D-01
 Coeff:      0.495D+00 0.761D+00-0.262D+00
 Gap=     0.299 Goal=   None    Shift=    0.000
 RMSDP=4.25D-05 MaxDP=3.81D-03 DE= 4.03D-06 OVMax= 3.24D-05

 Cycle  10  Pass 0  IDiag  1:
 RMSU=  6.17D-06    CP:  9.94D-01  1.99D+00  1.22D+00  1.44D+00  2.15D+00
                    CP:  2.05D+00  2.77D+00  1.57D+00  2.79D-01
 E= -1023.00061790930     Delta-E=       -0.000000747871 Rises=F Damp=F
 DIIS: error= 4.52D-05 at cycle  10 NSaved=  10.
 NSaved=10 IEnMin= 8 EnMin= -1023.00062119048     IErMin= 7 ErrMin= 3.63D-05
 ErrMax= 4.52D-05  0.00D+00 EMaxC= 1.00D-01 BMatC= 6.23D-07 BMatP= 8.23D-07
 IDIUse=1 WtCom= 1.00D+00 WtEn= 0.00D+00
 Coeff-Com:  0.534D-03-0.117D-02-0.515D-02-0.122D-01-0.184D-01 0.668D-02
 Coeff-Com:  0.346D+00 0.738D+00-0.167D+01 0.162D+01
 Coeff:      0.534D-03-0.117D-02-0.515D-02-0.122D-01-0.184D-01 0.668D-02
 Coeff:      0.346D+00 0.738D+00-0.167D+01 0.162D+01
 Gap=     0.299 Goal=   None    Shift=    0.000
 RMSDP=5.29D-05 MaxDP=4.39D-03 DE=-7.48D-07 OVMax= 6.56D-05

 Cycle  11  Pass 0  IDiag  1:
 RMSU=  2.19D-05    CP:  9.94D-01  1.98D+00  1.21D+00  1.43D+00  2.13D+00
                    CP:  1.90D+00  2.41D+00  4.62D-01 -1.23D+00  3.00D+00
 E= -1023.00061367526     Delta-E=        0.000004234038 Rises=F Damp=F
 DIIS: error= 2.94D-05 at cycle  11 NSaved=  11.
 NSaved=11 IEnMin= 8 EnMin= -1023.00062119048     IErMin=11 ErrMin= 2.94D-05
 ErrMax= 2.94D-05  0.00D+00 EMaxC= 1.00D-01 BMatC= 2.33D-07 BMatP= 6.23D-07
 IDIUse=1 WtCom= 1.00D+00 WtEn= 0.00D+00
 Coeff-Com:  0.306D-03-0.699D-03-0.278D-02-0.668D-02-0.797D-02 0.967D-02
 Coeff-Com:  0.197D+00 0.394D+00-0.895D+00 0.598D+00 0.715D+00
 Coeff:      0.306D-03-0.699D-03-0.278D-02-0.668D-02-0.797D-02 0.967D-02
 Coeff:      0.197D+00 0.394D+00-0.895D+00 0.598D+00 0.715D+00
 Gap=     0.299 Goal=   None    Shift=    0.000
 RMSDP=2.79D-05 MaxDP=2.50D-03 DE= 4.23D-06 OVMax= 3.86D-05

 Cycle  12  Pass 0  IDiag  1:
 RMSU=  1.72D-05    CP:  9.94D-01  1.99D+00  1.22D+00  1.45D+00  2.20D+00
                    CP:  1.92D+00  2.46D+00  7.61D-01 -1.28D+00  3.00D+00
                    CP:  1.51D+00
 E= -1023.00059716108     Delta-E=        0.000016514186 Rises=F Damp=F
 DIIS: error= 2.29D-05 at cycle  12 NSaved=  12.
 NSaved=12 IEnMin= 8 EnMin= -1023.00062119048     IErMin=12 ErrMin= 2.29D-05
 ErrMax= 2.29D-05  0.00D+00 EMaxC= 1.00D-01 BMatC= 2.48D-07 BMatP= 2.33D-07
 IDIUse=1 WtCom= 1.00D+00 WtEn= 0.00D+00
 Coeff-Com:  0.369D-03-0.845D-03-0.338D-02-0.781D-02-0.895D-02 0.147D-01
 Coeff-Com:  0.247D+00 0.443D+00-0.648D+00 0.374D+00 0.688D-01 0.521D+00
 Coeff:      0.369D-03-0.845D-03-0.338D-02-0.781D-02-0.895D-02 0.147D-01
 Coeff:      0.247D+00 0.443D+00-0.648D+00 0.374D+00 0.688D-01 0.521D+00
 Gap=     0.299 Goal=   None    Shift=    0.000
 RMSDP=2.77D-05 MaxDP=4.34D-03 DE= 1.65D-05 OVMax= 1.92D-05

 Cycle  13  Pass 0  IDiag  1:
 RMSU=  1.24D-05    CP:  9.94D-01  1.98D+00  1.21D+00  1.44D+00  2.13D+00
                    CP:  1.86D+00  2.34D+00  1.20D+00 -5.48D-01  3.00D+00
                    CP:  1.47D+00  1.50D+00
 E= -1023.00059243202     Delta-E=        0.000004729053 Rises=F Damp=F
 DIIS: error= 2.58D-05 at cycle  13 NSaved=  13.
 NSaved=13 IEnMin= 8 EnMin= -1023.00062119048     IErMin=12 ErrMin= 2.29D-05
 ErrMax= 2.58D-05  0.00D+00 EMaxC= 1.00D-01 BMatC= 2.79D-07 BMatP= 2.33D-07
 IDIUse=1 WtCom= 1.00D+00 WtEn= 0.00D+00
 Coeff-Com:  0.390D-03-0.885D-03-0.360D-02-0.839D-02-0.102D-01 0.133D-01
 Coeff-Com:  0.260D+00 0.484D+00-0.753D+00 0.544D+00 0.112D-01-0.821D-01
 Coeff-Com:  0.544D+00
 Coeff:      0.390D-03-0.885D-03-0.360D-02-0.839D-02-0.102D-01 0.133D-01
 Coeff:      0.260D+00 0.484D+00-0.753D+00 0.544D+00 0.112D-01-0.821D-01
 Coeff:      0.544D+00
 Gap=     0.299 Goal=   None    Shift=    0.000
 RMSDP=1.70D-05 MaxDP=1.84D-03 DE= 4.73D-06 OVMax= 1.30D-05

 Cycle  14  Pass 0  IDiag  1:
 RMSU=  7.78D-06    CP:  9.94D-01  1.98D+00  1.21D+00  1.43D+00  2.09D+00
                    CP:  1.81D+00  2.31D+00  1.54D+00 -2.13D-01  3.00D+00
                    CP:  1.33D+00  1.59D+00  1.46D+00
 E= -1023.00059873932     Delta-E=       -0.000006307294 Rises=F Damp=F
 DIIS: error= 2.91D-05 at cycle  14 NSaved=  14.
 NSaved=14 IEnMin= 8 EnMin= -1023.00062119048     IErMin=12 ErrMin= 2.29D-05
 ErrMax= 2.91D-05  0.00D+00 EMaxC= 1.00D-01 BMatC= 3.15D-07 BMatP= 2.33D-07
 IDIUse=1 WtCom= 1.00D+00 WtEn= 0.00D+00
 Coeff-Com:  0.373D-03-0.840D-03-0.346D-02-0.808D-02-0.102D-01 0.115D-01
 Coeff-Com:  0.249D+00 0.468D+00-0.801D+00 0.590D+00-0.535D-01 0.546D+00
 Coeff-Com:  0.105D+01-0.104D+01
 Coeff:      0.373D-03-0.840D-03-0.346D-02-0.808D-02-0.102D-01 0.115D-01
 Coeff:      0.249D+00 0.468D+00-0.801D+00 0.590D+00-0.535D-01 0.546D+00
 Coeff:      0.105D+01-0.104D+01
 Gap=     0.299 Goal=   None    Shift=    0.000
 RMSDP=3.57D-05 MaxDP=2.85D-03 DE=-6.31D-06 OVMax= 2.60D-05

 Cycle  15  Pass 0  IDiag  1:
 RMSU=  1.14D-05    CP:  9.94D-01  1.98D+00  1.21D+00  1.45D+00  2.16D+00
                    CP:  1.84D+00  2.43D+00  8.06D-01 -9.99D-01  3.00D+00
                    CP:  1.51D+00  1.31D+00  5.48D-01 -8.89D-01
 E= -1023.00059143017     Delta-E=        0.000007309151 Rises=F Damp=F
 DIIS: error= 2.66D-05 at cycle  15 NSaved=  15.
 NSaved=15 IEnMin= 8 EnMin= -1023.00062119048     IErMin=12 ErrMin= 2.29D-05
 ErrMax= 2.66D-05  0.00D+00 EMaxC= 1.00D-01 BMatC= 2.72D-07 BMatP= 2.33D-07
 IDIUse=1 WtCom= 1.00D+00 WtEn= 0.00D+00
 Coeff-Com:  0.342D-03-0.778D-03-0.315D-02-0.732D-02-0.893D-02 0.113D-01
 Coeff-Com:  0.229D+00 0.420D+00-0.706D+00 0.557D+00-0.243D+00 0.307D+00
 Coeff-Com:  0.167D+01-0.223D+01 0.101D+01
 Coeff:      0.342D-03-0.778D-03-0.315D-02-0.732D-02-0.893D-02 0.113D-01
 Coeff:      0.229D+00 0.420D+00-0.706D+00 0.557D+00-0.243D+00 0.307D+00
 Coeff:      0.167D+01-0.223D+01 0.101D+01
 Gap=     0.299 Goal=   None    Shift=    0.000
 RMSDP=3.50D-05 MaxDP=2.36D-03 DE= 7.31D-06 OVMax= 2.69D-05

 Cycle  16  Pass 0  IDiag  1:
 RMSU=  1.33D-05    CP:  9.95D-01  1.98D+00  1.21D+00  1.46D+00  2.22D+00
                    CP:  1.90D+00  2.38D+00  1.78D-01 -1.68D+00  3.00D+00
                    CP:  1.65D+00  1.54D+00 -3.17D-01 -3.00D+00  1.83D+00
 E= -1023.00057054546     Delta-E=        0.000020884708 Rises=F Damp=F
 DIIS: error= 2.24D-05 at cycle  16 NSaved=  16.
 NSaved=16 IEnMin= 8 EnMin= -1023.00062119048     IErMin=16 ErrMin= 2.24D-05
 ErrMax= 2.24D-05  0.00D+00 EMaxC= 1.00D-01 BMatC= 1.87D-07 BMatP= 2.33D-07
 IDIUse=1 WtCom= 1.00D+00 WtEn= 0.00D+00
 Coeff-Com:  0.292D-03-0.646D-03-0.277D-02-0.667D-02-0.966D-02 0.425D-02
 Coeff-Com:  0.191D+00 0.389D+00-0.689D+00 0.676D+00-0.146D+00-0.100D+01
 Coeff-Com:  0.113D+01-0.663D+00-0.847D+00 0.197D+01
 Coeff:      0.292D-03-0.646D-03-0.277D-02-0.667D-02-0.966D-02 0.425D-02
 Coeff:      0.191D+00 0.389D+00-0.689D+00 0.676D+00-0.146D+00-0.100D+01
 Coeff:      0.113D+01-0.663D+00-0.847D+00 0.197D+01
 Gap=     0.299 Goal=   None    Shift=    0.000
 RMSDP=8.23D-05 MaxDP=9.76D-03 DE= 2.09D-05 OVMax= 3.91D-05

 Problem detected with inexpensive integrals.
 Switching to full accuracy and repeating last cycle.
 Cycle  17  Pass 1  IDiag  1:
 E= -1023.00039922954     Delta-E=        0.000171315920 Rises=F Damp=F
 DIIS: error= 6.34D-04 at cycle   1 NSaved=   1.
 NSaved= 1 IEnMin= 1 EnMin= -1023.00039922954     IErMin= 1 ErrMin= 6.34D-04
 ErrMax= 6.34D-04  0.00D+00 EMaxC= 1.00D-01 BMatC= 1.20D-04 BMatP= 1.20D-04
 IDIUse=3 WtCom= 9.94D-01 WtEn= 6.34D-03
 Coeff-Com:  0.100D+01
 Coeff-En:   0.100D+01
 Coeff:      0.100D+01
 Gap=     0.299 Goal=   None    Shift=    0.000
 RMSDP=2.51D-03 MaxDP=2.98D-01 DE= 1.71D-04 OVMax= 1.68D-03

 Cycle  18  Pass 1  IDiag  1:
 RMSU=  2.22D-03    CP:  8.07D-01
 E= -1023.00047442080     Delta-E=       -0.000075191265 Rises=F Damp=F
 DIIS: error= 2.12D-05 at cycle   2 NSaved=   2.
 NSaved= 2 IEnMin= 2 EnMin= -1023.00047442080     IErMin= 2 ErrMin= 2.12D-05
 ErrMax= 2.12D-05  0.00D+00 EMaxC= 1.00D-01 BMatC= 7.16D-08 BMatP= 1.20D-04
 IDIUse=1 WtCom= 1.00D+00 WtEn= 0.00D+00
 Coeff-Com: -0.161D-01 0.102D+01
 Coeff:     -0.161D-01 0.102D+01
 Gap=     0.299 Goal=   None    Shift=    0.000
 RMSDP=5.04D-05 MaxDP=2.84D-03 DE=-7.52D-05 OVMax= 8.58D-05

 Cycle  19  Pass 1  IDiag  1:
 RMSU=  3.88D-05    CP:  8.05D-01  1.01D+00
 E= -1023.00047449739     Delta-E=       -0.000000076587 Rises=F Damp=F
 DIIS: error= 3.74D-06 at cycle   3 NSaved=   3.
 NSaved= 3 IEnMin= 3 EnMin= -1023.00047449739     IErMin= 3 ErrMin= 3.74D-06
 ErrMax= 3.74D-06  0.00D+00 EMaxC= 1.00D-01 BMatC= 2.91D-08 BMatP= 7.16D-08
 IDIUse=1 WtCom= 1.00D+00 WtEn= 0.00D+00
 Coeff-Com: -0.733D-02 0.446D+00 0.561D+00
 Coeff:     -0.733D-02 0.446D+00 0.561D+00
 Gap=     0.299 Goal=   None    Shift=    0.000
 RMSDP=9.08D-07 MaxDP=1.06D-04 DE=-7.66D-08 OVMax= 4.18D-05

 Cycle  20  Pass 1  IDiag  1:
 RMSU=  3.86D-07    CP:  8.05D-01  1.01D+00  1.02D+00
 E= -1023.00047451663     Delta-E=       -0.000000019242 Rises=F Damp=F
 DIIS: error= 1.76D-06 at cycle   4 NSaved=   4.
 NSaved= 4 IEnMin= 4 EnMin= -1023.00047451663     IErMin= 4 ErrMin= 1.76D-06
 ErrMax= 1.76D-06  0.00D+00 EMaxC= 1.00D-01 BMatC= 5.68D-09 BMatP= 2.91D-08
 IDIUse=1 WtCom= 1.00D+00 WtEn= 0.00D+00
 Coeff-Com:  0.729D-04-0.139D-01 0.300D+00 0.714D+00
 Coeff:      0.729D-04-0.139D-01 0.300D+00 0.714D+00
 Gap=     0.299 Goal=   None    Shift=    0.000
 RMSDP=6.96D-07 MaxDP=7.43D-05 DE=-1.92D-08 OVMax= 2.16D-05

 Cycle  21  Pass 1  IDiag  1:
 RMSU=  1.96D-07    CP:  8.05D-01  1.01D+00  1.03D+00  1.29D+00
 E= -1023.00047452114     Delta-E=       -0.000000004504 Rises=F Damp=F
 DIIS: error= 3.60D-07 at cycle   5 NSaved=   5.
 NSaved= 5 IEnMin= 5 EnMin= -1023.00047452114     IErMin= 5 ErrMin= 3.60D-07
 ErrMax= 3.60D-07  0.00D+00 EMaxC= 1.00D-01 BMatC= 2.84D-10 BMatP= 5.68D-09
 IDIUse=1 WtCom= 1.00D+00 WtEn= 0.00D+00
 Coeff-Com:  0.292D-03-0.223D-01 0.124D+00 0.352D+00 0.546D+00
 Coeff:      0.292D-03-0.223D-01 0.124D+00 0.352D+00 0.546D+00
 Gap=     0.299 Goal=   None    Shift=    0.000
 RMSDP=4.90D-08 MaxDP=7.62D-06 DE=-4.50D-09 OVMax= 2.38D-06

 Cycle  22  Pass 1  IDiag  1:
 RMSU=  2.34D-08    CP:  8.05D-01  1.01D+00  1.03D+00  1.32D+00  1.08D+00
 E= -1023.00047452133     Delta-E=       -0.000000000189 Rises=F Damp=F
 DIIS: error= 1.49D-07 at cycle   6 NSaved=   6.
 NSaved= 6 IEnMin= 6 EnMin= -1023.00047452133     IErMin= 6 ErrMin= 1.49D-07
 ErrMax= 1.49D-07  0.00D+00 EMaxC= 1.00D-01 BMatC= 1.88D-11 BMatP= 2.84D-10
 IDIUse=1 WtCom= 1.00D+00 WtEn= 0.00D+00
 Coeff-Com:  0.101D-03-0.685D-02 0.128D-01 0.620D-01 0.192D+00 0.740D+00
 Coeff:      0.101D-03-0.685D-02 0.128D-01 0.620D-01 0.192D+00 0.740D+00
 Gap=     0.299 Goal=   None    Shift=    0.000
 RMSDP=1.55D-08 MaxDP=4.27D-06 DE=-1.89D-10 OVMax= 2.15D-06

 Cycle  23  Pass 1  IDiag  1:
 RMSU=  1.12D-08    CP:  8.05D-01  1.01D+00  1.03D+00  1.35D+00  1.10D+00
                    CP:  1.05D+00
 E= -1023.00047452133     Delta-E=       -0.000000000008 Rises=F Damp=F
 DIIS: error= 7.54D-08 at cycle   7 NSaved=   7.
 NSaved= 7 IEnMin= 7 EnMin= -1023.00047452133     IErMin= 7 ErrMin= 7.54D-08
 ErrMax= 7.54D-08  0.00D+00 EMaxC= 1.00D-01 BMatC= 9.16D-12 BMatP= 1.88D-11
 IDIUse=1 WtCom= 1.00D+00 WtEn= 0.00D+00
 Coeff-Com: -0.208D-04 0.211D-02-0.283D-01-0.592D-01-0.520D-01 0.445D+00
 Coeff-Com:  0.692D+00
 Coeff:     -0.208D-04 0.211D-02-0.283D-01-0.592D-01-0.520D-01 0.445D+00
 Coeff:      0.692D+00
 Gap=     0.299 Goal=   None    Shift=    0.000
 RMSDP=7.87D-09 MaxDP=5.10D-07 DE=-7.73D-12 OVMax= 8.67D-07

 SCF Done:  E(RM062X) =  -1023.00047452     A.U. after   23 cycles
            NFock= 23  Conv=0.79D-08     -V/T= 2.0060
 KE= 1.016895050766D+03 PE=-6.795541773696D+03 EE= 2.547984660368D+03
 Leave Link  502 at Tue Jan  7 20:15:51 2025, MaxMem=  4026531840 cpu:           28120.4 elap:            1406.4
 (Enter /usr/local/intel/g16/l601.exe)
 Copying SCF densities to generalized density rwf, IOpCl= 0 IROHF=0.

 **********************************************************************

            Population analysis using the SCF Density.

 **********************************************************************

 Orbital symmetries:
       Occupied  (A) (A) (A) (A) (A) (A) (A) (A) (A) (A) (A) (A)
                 (A) (A) (A) (A) (A) (A) (A) (A) (A) (A) (A) (A)
                 (A) (A) (A) (A) (A) (A) (A) (A) (A) (A) (A) (A)
                 (A) (A) (A) (A) (A) (A) (A) (A) (A) (A) (A) (A)
                 (A) (A) (A) (A) (A) (A) (A) (A) (A) (A) (A) (A)
                 (A) (A) (A) (A) (A) (A) (A) (A) (A) (A) (A) (A)
                 (A) (A) (A) (A) (A) (A) (A) (A) (A) (A) (A) (A)
                 (A) (A) (A) (A)
       Virtual   (A) (A) (A) (A) (A) (A) (A) (A) (A) (A) (A) (A)
                 (A) (A) (A) (A) (A) (A) (A) (A) (A) (A) (A) (A)
                 (A) (A) (A) (A) (A) (A) (A) (A) (A) (A) (A) (A)
                 (A) (A) (A) (A) (A) (A) (A) (A) (A) (A) (A) (A)
                 (A) (A) (A) (A) (A) (A) (A) (A) (A) (A) (A) (A)
                 (A) (A) (A) (A) (A) (A) (A) (A) (A) (A) (A) (A)
                 (A) (A) (A) (A) (A) (A) (A) (A) (A) (A) (A) (A)
                 (A) (A) (A) (A) (A) (A) (A) (A) (A) (A) (A) (A)
                 (A) (A) (A) (A) (A) (A) (A) (A) (A) (A) (A) (A)
                 (A) (A) (A) (A) (A) (A) (A) (A) (A) (A) (A) (A)
                 (A) (A) (A) (A) (A) (A) (A) (A) (A) (A) (A) (A)
                 (A) (A) (A) (A) (A) (A) (A) (A) (A) (A) (A) (A)
                 (A) (A) (A) (A) (A) (A) (A) (A) (A) (A) (A) (A)
                 (A) (A) (A) (A) (A) (A) (A) (A) (A) (A) (A) (A)
                 (A) (A) (A) (A) (A) (A) (A) (A) (A) (A) (A) (A)
                 (A) (A) (A) (A) (A) (A) (A) (A) (A) (A) (A) (A)
                 (A) (A) (A) (A) (A) (A) (A) (A) (A) (A) (A) (A)
                 (A) (A) (A) (A) (A) (A) (A) (A) (A) (A) (A) (A)
                 (A) (A) (A) (A) (A) (A) (A) (A) (A) (A) (A) (A)
                 (A) (A) (A) (A) (A) (A) (A) (A) (A) (A) (A) (A)
                 (A) (A) (A) (A) (A) (A) (A) (A) (A) (A) (A) (A)
                 (A) (A) (A) (A) (A) (A) (A) (A) (A) (A) (A) (A)
                 (A) (A) (A) (A) (A) (A) (A) (A) (A) (A) (A) (A)
                 (A) (A) (A) (A) (A) (A) (A) (A) (A) (A) (A) (A)
                 (A) (A) (A) (A) (A) (A) (A) (A) (A) (A) (A) (A)
                 (A) (A) (A) (A) (A) (A) (A) (A) (A) (A) (A) (A)
                 (A) (A) (A) (A) (A) (A) (A) (A) (A) (A) (A) (A)
                 (A) (A) (A) (A) (A) (A) (A) (A) (A) (A) (A) (A)
                 (A) (A) (A) (A) (A) (A) (A) (A) (A) (A) (A) (A)
                 (A) (A) (A) (A) (A) (A) (A) (A) (A) (A) (A) (A)
                 (A) (A) (A) (A) (A) (A) (A) (A) (A) (A) (A) (A)
                 (A) (A) (A) (A) (A) (A) (A) (A) (A) (A) (A) (A)
                 (A) (A) (A) (A) (A) (A) (A) (A) (A) (A) (A) (A)
                 (A) (A) (A) (A) (A) (A) (A) (A) (A) (A) (A) (A)
                 (A) (A) (A) (A) (A) (A) (A) (A) (A) (A) (A) (A)
                 (A) (A) (A) (A) (A) (A) (A) (A) (A) (A) (A) (A)
                 (A) (A) (A) (A) (A) (A) (A) (A) (A) (A) (A) (A)
                 (A) (A) (A) (A) (A) (A) (A) (A) (A) (A) (A) (A)
                 (A) (A) (A) (A) (A) (A) (A) (A) (A) (A) (A) (A)
                 (A) (A) (A) (A) (A) (A) (A) (A) (A) (A) (A) (A)
                 (A) (A) (A) (A) (A) (A) (A) (A) (A) (A) (A) (A)
                 (A) (A) (A) (A) (A) (A) (A) (A) (A) (A) (A) (A)
                 (A) (A) (A) (A) (A) (A) (A) (A) (A) (A) (A) (A)
                 (A) (A) (A) (A) (A) (A) (A) (A) (A) (A) (A) (A)
                 (A) (A) (A) (A) (A) (A) (A) (A) (A) (A) (A) (A)
                 (A) (A) (A) (A) (A) (A) (A) (A) (A) (A) (A) (A)
                 (A) (A) (A) (A) (A) (A) (A) (A) (A) (A) (A) (A)
                 (A) (A) (A) (A) (A) (A) (A) (A) (A) (A) (A) (A)
                 (A) (A) (A) (A) (A) (A) (A) (A) (A) (A) (A) (A)
                 (A) (A) (A) (A) (A) (A) (A) (A) (A) (A) (A) (A)
                 (A) (A) (A) (A) (A) (A) (A) (A) (A) (A) (A) (A)
                 (A) (A) (A) (A) (A) (A) (A) (A) (A) (A) (A) (A)
                 (A) (A) (A) (A) (A) (A) (A) (A) (A) (A) (A) (A)
                 (A) (A) (A) (A) (A) (A) (A) (A) (A) (A) (A) (A)
                 (A) (A) (A) (A) (A) (A) (A) (A) (A) (A) (A) (A)
                 (A) (A) (A) (A) (A) (A) (A) (A) (A) (A) (A) (A)
                 (A) (A) (A) (A) (A) (A) (A) (A) (A) (A) (A) (A)
                 (A) (A) (A) (A) (A) (A) (A) (A) (A) (A) (A) (A)
                 (A) (A) (A) (A) (A) (A) (A) (A) (A) (A) (A) (A)
                 (A) (A) (A) (A) (A) (A) (A) (A) (A) (A) (A) (A)
                 (A) (A) (A) (A) (A) (A) (A) (A) (A) (A) (A) (A)
                 (A) (A) (A) (A) (A) (A) (A) (A) (A) (A) (A) (A)
                 (A) (A) (A) (A) (A) (A) (A) (A) (A) (A) (A) (A)
                 (A) (A) (A) (A) (A) (A) (A) (A) (A) (A) (A) (A)
                 (A) (A) (A) (A) (A) (A) (A) (A) (A) (A) (A) (A)
                 (A) (A) (A) (A) (A) (A) (A) (A) (A) (A) (A) (A)
                 (A) (A) (A) (A) (A) (A) (A) (A) (A) (A) (A) (A)
                 (A) (A) (A) (A) (A) (A) (A)
 The electronic state is 1-A.
 Alpha  occ. eigenvalues --  -19.67539 -19.65920 -19.62516 -14.79499 -10.68102
 Alpha  occ. eigenvalues --  -10.60921 -10.60454 -10.57984 -10.57370 -10.54814
 Alpha  occ. eigenvalues --  -10.54494 -10.54397 -10.54325 -10.54295 -10.53978
 Alpha  occ. eigenvalues --  -10.53852 -10.53657 -10.52949 -10.52935 -10.52074
 Alpha  occ. eigenvalues --  -10.52040 -10.51916 -10.51201  -1.22258  -1.17312
 Alpha  occ. eigenvalues --   -1.13252  -0.98675  -0.95298  -0.90927  -0.88922
 Alpha  occ. eigenvalues --   -0.86793  -0.84898  -0.83785  -0.83240  -0.78288
 Alpha  occ. eigenvalues --   -0.77038  -0.76893  -0.76222  -0.74365  -0.70364
 Alpha  occ. eigenvalues --   -0.68925  -0.67363  -0.64905  -0.64003  -0.62931
 Alpha  occ. eigenvalues --   -0.59443  -0.59213  -0.57786  -0.56165  -0.55580
 Alpha  occ. eigenvalues --   -0.55016  -0.53619  -0.52488  -0.51350  -0.50917
 Alpha  occ. eigenvalues --   -0.50694  -0.49707  -0.49294  -0.48899  -0.48692
 Alpha  occ. eigenvalues --   -0.48287  -0.47443  -0.46493  -0.46240  -0.45817
 Alpha  occ. eigenvalues --   -0.44937  -0.44489  -0.44284  -0.44021  -0.43540
 Alpha  occ. eigenvalues --   -0.43096  -0.42973  -0.42800  -0.42216  -0.42094
 Alpha  occ. eigenvalues --   -0.41149  -0.39962  -0.39547  -0.39048  -0.38389
 Alpha  occ. eigenvalues --   -0.37993  -0.37638  -0.37450  -0.35859  -0.34634
 Alpha  occ. eigenvalues --   -0.30596  -0.29977  -0.28539
 Alpha virt. eigenvalues --    0.01388   0.01810   0.02515   0.05150   0.06233
 Alpha virt. eigenvalues --    0.07350   0.07704   0.08655   0.09628   0.09925
 Alpha virt. eigenvalues --    0.10281   0.10780   0.11684   0.11925   0.12313
 Alpha virt. eigenvalues --    0.12485   0.12827   0.13073   0.13448   0.13816
 Alpha virt. eigenvalues --    0.14152   0.14417   0.14830   0.15111   0.15373
 Alpha virt. eigenvalues --    0.15990   0.16411   0.16779   0.17143   0.17446
 Alpha virt. eigenvalues --    0.17643   0.18113   0.18512   0.18899   0.19091
 Alpha virt. eigenvalues --    0.19294   0.19340   0.20351   0.20444   0.20944
 Alpha virt. eigenvalues --    0.21153   0.21316   0.21954   0.22062   0.22904
 Alpha virt. eigenvalues --    0.23137   0.23785   0.24122   0.24314   0.24588
 Alpha virt. eigenvalues --    0.25165   0.25607   0.25836   0.26726   0.27028
 Alpha virt. eigenvalues --    0.27678   0.28184   0.28274   0.28606   0.29393
 Alpha virt. eigenvalues --    0.29759   0.30423   0.30545   0.30888   0.31323
 Alpha virt. eigenvalues --    0.32118   0.32454   0.33214   0.33838   0.34097
 Alpha virt. eigenvalues --    0.34522   0.35081   0.35357   0.35754   0.36359
 Alpha virt. eigenvalues --    0.36541   0.37170   0.37342   0.37949   0.39085
 Alpha virt. eigenvalues --    0.39717   0.40134   0.40261   0.40844   0.41163
 Alpha virt. eigenvalues --    0.41293   0.41610   0.41807   0.42281   0.42858
 Alpha virt. eigenvalues --    0.42970   0.43402   0.43849   0.44187   0.44584
 Alpha virt. eigenvalues --    0.44928   0.45261   0.45776   0.46158   0.46199
 Alpha virt. eigenvalues --    0.46335   0.46456   0.46998   0.47247   0.47625
 Alpha virt. eigenvalues --    0.47940   0.47996   0.48576   0.49079   0.49191
 Alpha virt. eigenvalues --    0.49517   0.49950   0.50065   0.50586   0.50831
 Alpha virt. eigenvalues --    0.51406   0.51525   0.51597   0.52055   0.52417
 Alpha virt. eigenvalues --    0.52789   0.52919   0.53467   0.53588   0.53818
 Alpha virt. eigenvalues --    0.54429   0.54745   0.55065   0.55508   0.55843
 Alpha virt. eigenvalues --    0.56291   0.56648   0.56890   0.57487   0.57876
 Alpha virt. eigenvalues --    0.58451   0.59051   0.59513   0.60168   0.60462
 Alpha virt. eigenvalues --    0.61888   0.62312   0.62890   0.63346   0.64234
 Alpha virt. eigenvalues --    0.64807   0.65220   0.65942   0.66410   0.66837
 Alpha virt. eigenvalues --    0.67111   0.67965   0.68375   0.69316   0.70130
 Alpha virt. eigenvalues --    0.70325   0.71126   0.71625   0.71973   0.72757
 Alpha virt. eigenvalues --    0.73691   0.74325   0.75382   0.75769   0.76205
 Alpha virt. eigenvalues --    0.76743   0.77376   0.77955   0.78459   0.79133
 Alpha virt. eigenvalues --    0.79643   0.80483   0.81555   0.82550   0.82642
 Alpha virt. eigenvalues --    0.83759   0.84081   0.84921   0.85221   0.86050
 Alpha virt. eigenvalues --    0.86253   0.87076   0.87632   0.88426   0.88894
 Alpha virt. eigenvalues --    0.89312   0.89836   0.90578   0.91537   0.92047
 Alpha virt. eigenvalues --    0.92960   0.93157   0.93624   0.94298   0.94801
 Alpha virt. eigenvalues --    0.95581   0.95818   0.96619   0.97058   0.98066
 Alpha virt. eigenvalues --    0.98558   0.99288   1.00306   1.00537   1.00845
 Alpha virt. eigenvalues --    1.01404   1.01978   1.02913   1.04000   1.04488
 Alpha virt. eigenvalues --    1.05640   1.06558   1.06686   1.07428   1.07862
 Alpha virt. eigenvalues --    1.08439   1.09177   1.09812   1.09961   1.10992
 Alpha virt. eigenvalues --    1.11833   1.12497   1.12696   1.13174   1.14084
 Alpha virt. eigenvalues --    1.14540   1.15422   1.16259   1.17114   1.17743
 Alpha virt. eigenvalues --    1.18188   1.18977   1.19236   1.19639   1.20416
 Alpha virt. eigenvalues --    1.21852   1.22054   1.22834   1.23228   1.23905
 Alpha virt. eigenvalues --    1.24018   1.24763   1.25227   1.25619   1.26773
 Alpha virt. eigenvalues --    1.27573   1.28129   1.28938   1.29433   1.30169
 Alpha virt. eigenvalues --    1.31319   1.31982   1.32623   1.33008   1.34355
 Alpha virt. eigenvalues --    1.34924   1.36123   1.36320   1.37055   1.38222
 Alpha virt. eigenvalues --    1.39199   1.39828   1.40845   1.41718   1.42892
 Alpha virt. eigenvalues --    1.43356   1.45056   1.47266   1.47871   1.49400
 Alpha virt. eigenvalues --    1.50121   1.51132   1.51278   1.51764   1.53257
 Alpha virt. eigenvalues --    1.53600   1.54532   1.55283   1.55383   1.56186
 Alpha virt. eigenvalues --    1.56616   1.57012   1.57860   1.58273   1.58717
 Alpha virt. eigenvalues --    1.60061   1.60581   1.61153   1.61267   1.61726
 Alpha virt. eigenvalues --    1.61845   1.62378   1.62965   1.63083   1.63359
 Alpha virt. eigenvalues --    1.63944   1.64531   1.64705   1.65061   1.65707
 Alpha virt. eigenvalues --    1.65929   1.66083   1.66280   1.66773   1.67074
 Alpha virt. eigenvalues --    1.67393   1.68437   1.68640   1.69233   1.69638
 Alpha virt. eigenvalues --    1.69970   1.70200   1.71479   1.71934   1.72496
 Alpha virt. eigenvalues --    1.72721   1.73841   1.74085   1.75555   1.75841
 Alpha virt. eigenvalues --    1.76836   1.77267   1.77815   1.78129   1.78892
 Alpha virt. eigenvalues --    1.80344   1.81789   1.82017   1.82241   1.83260
 Alpha virt. eigenvalues --    1.83534   1.84476   1.85296   1.85830   1.86437
 Alpha virt. eigenvalues --    1.87562   1.88190   1.88293   1.88974   1.90406
 Alpha virt. eigenvalues --    1.91394   1.91814   1.92571   1.93694   1.94122
 Alpha virt. eigenvalues --    1.94770   1.95313   1.95954   1.96921   1.97467
 Alpha virt. eigenvalues --    1.98718   2.00095   2.00285   2.00830   2.01670
 Alpha virt. eigenvalues --    2.02660   2.03126   2.03815   2.04181   2.04438
 Alpha virt. eigenvalues --    2.04798   2.06547   2.06881   2.07329   2.08451
 Alpha virt. eigenvalues --    2.09323   2.10404   2.10680   2.11401   2.11564
 Alpha virt. eigenvalues --    2.12927   2.13785   2.14622   2.15101   2.15971
 Alpha virt. eigenvalues --    2.16986   2.17938   2.18249   2.19398   2.20425
 Alpha virt. eigenvalues --    2.21035   2.21638   2.22407   2.22997   2.23801
 Alpha virt. eigenvalues --    2.24991   2.25168   2.26293   2.26711   2.28217
 Alpha virt. eigenvalues --    2.28449   2.29701   2.30807   2.31238   2.31962
 Alpha virt. eigenvalues --    2.32473   2.33036   2.33869   2.34226   2.35049
 Alpha virt. eigenvalues --    2.35377   2.35775   2.35998   2.36124   2.36562
 Alpha virt. eigenvalues --    2.37870   2.37964   2.38441   2.38693   2.39572
 Alpha virt. eigenvalues --    2.40782   2.40863   2.41360   2.42069   2.42573
 Alpha virt. eigenvalues --    2.43417   2.43697   2.43991   2.44922   2.45266
 Alpha virt. eigenvalues --    2.45849   2.47745   2.47865   2.48314   2.48558
 Alpha virt. eigenvalues --    2.48752   2.49966   2.50862   2.51282   2.51882
 Alpha virt. eigenvalues --    2.52651   2.52988   2.53683   2.54587   2.55032
 Alpha virt. eigenvalues --    2.55459   2.56066   2.56659   2.57027   2.57314
 Alpha virt. eigenvalues --    2.57842   2.58446   2.59068   2.59909   2.59982
 Alpha virt. eigenvalues --    2.60600   2.60683   2.61682   2.62047   2.62353
 Alpha virt. eigenvalues --    2.62910   2.63135   2.63644   2.64148   2.64475
 Alpha virt. eigenvalues --    2.64833   2.65196   2.65983   2.66713   2.67124
 Alpha virt. eigenvalues --    2.67702   2.68145   2.68771   2.68996   2.69407
 Alpha virt. eigenvalues --    2.70484   2.71114   2.71145   2.71969   2.72824
 Alpha virt. eigenvalues --    2.73222   2.73632   2.73932   2.74697   2.75377
 Alpha virt. eigenvalues --    2.75965   2.76555   2.77275   2.77741   2.78911
 Alpha virt. eigenvalues --    2.79586   2.79960   2.80501   2.81827   2.82129
 Alpha virt. eigenvalues --    2.82754   2.83212   2.83998   2.84215   2.85209
 Alpha virt. eigenvalues --    2.86034   2.86212   2.86945   2.88263   2.89362
 Alpha virt. eigenvalues --    2.89453   2.89976   2.90476   2.91000   2.91751
 Alpha virt. eigenvalues --    2.92047   2.92832   2.93599   2.94829   2.96868
 Alpha virt. eigenvalues --    2.97113   2.97865   2.99609   3.00527   3.01889
 Alpha virt. eigenvalues --    3.02468   3.03618   3.04241   3.04946   3.05607
 Alpha virt. eigenvalues --    3.06268   3.06683   3.07275   3.07501   3.09009
 Alpha virt. eigenvalues --    3.09446   3.09747   3.10939   3.11827   3.12136
 Alpha virt. eigenvalues --    3.12188   3.13520   3.14119   3.14907   3.15397
 Alpha virt. eigenvalues --    3.15824   3.16209   3.17010   3.17123   3.17593
 Alpha virt. eigenvalues --    3.18172   3.19002   3.19700   3.20206   3.21229
 Alpha virt. eigenvalues --    3.21824   3.21866   3.22133   3.22854   3.23529
 Alpha virt. eigenvalues --    3.23635   3.24473   3.24988   3.25874   3.26561
 Alpha virt. eigenvalues --    3.26701   3.27604   3.28193   3.28489   3.29192
[...]
 0,-0.00000694,-0.00010778,0.00000049,-0.00028143,0.00008148,0.00007707
 ,0.00009058,-0.00002211,0.00003562,0.00004369,0.00000505,0.00001927,0.
 00001512,-0.00000580,0.00000088,-0.00003923,0.00001497,-0.00000756,0.0
 0000151,0.00001687,0.00001077,-0.00001626,-0.00001997,-0.00000588,-0.0
 0000197,0.00000157,0.00000468,0.00000233,0.00000062,0.00000996,-0.0000
 0031,0.00000456,-0.00000605,-0.00000137,-0.00000058,0.00000698,-0.0000
 0175,0.00000470,0.00000435,-0.00007893,0.00016875,-0.00023904,-0.00001
 592,-0.00000398,-0.00002108,-0.00001645,0.00001944,-0.00003071,0.00000
 970,0.00000173,0.00001067,0.00000341,-0.00000030,0.00000983,0.00003668
 ,0.00001329,0.00001356,-0.00001391,0.00000228,-0.00003313,-0.00000112,
 -0.00002159,0.00002981,-0.00109923,-0.00236868,-0.00193926,-0.12530260
 ,-0.10034836,0.15517627,-0.00001465,0.00000372,-0.00000723,0.00006363,
 -0.00001851,0.00000711,0.00005913,-0.00012172,-0.00003144,-0.00005628,
 0.00003824,0.00003998,-0.00013237,0.00005081,-0.00001056,0.00006866,0.
 00008251,-0.00002727,0.00000049,-0.00003144,0.00001194,0.00000698,0.00
 018219,-0.00004139,-0.00002944,-0.00008100,0.00006508,-0.00001202,-0.0
 0002205,0.00001254,0.00000878,0.00001819,0.00000311,-0.00000869,0.0000
 2196,0.00000084,0.00000576,0.00000368,-0.00000337,0.00003673,-0.000254
 61,-0.00026162,-0.00003487,0.00002159,0.00002050,0.00000324,-0.0000077
 4,-0.00000966,-0.00000120,0.00000308,0.00001277,-0.00129027,-0.0004801
 9,0.00053297,-0.00497988,0.00237581,0.00230267,-0.00352445,0.02370732,
 -0.01769234,-0.08471306,0.07132695,-0.04339078,0.01051358,-0.01661780,
 0.01137322,-0.00146506,-0.00084478,0.00412298,-0.00000308,0.00000616,0
 .00000069,0.00000094,0.00000008,0.00000123,0.00000153,0.00000098,-0.00
 000016,-0.00000740,0.00000021,-0.00000273,-0.00000482,-0.00000293,0.00
 000472,-0.00001259,-0.00000952,0.00000422,0.00001561,0.00003899,-0.000
 01916,-0.00002574,-0.00000104,-0.00000362,0.00000811,0.00000438,0.0000
 0240,0.00000449,-0.00001956,-0.00002188,-0.00000924,-0.00000193,0.0000
 0826,0.00001233,0.00000855,-0.00000257,0.00001155,0.00001360,0.0000131
 2,0.00000073,-0.00000242,-0.00000271,0.00000618,-0.00000847,-0.0000011
 4,-0.00000222,0.00000178,-0.00000132,0.00000185,-0.00000487,-0.0000039
 9,0.00000244,0.00000104,0.00000060,-0.00000099,0.00007874,-0.00006718,
 0.00003130,-0.00000397,0.00001551,-0.00000339,0.00000424,-0.00000466,-
 0.00000041,-0.00000183,0.00000169,0.00000291,0.00000587,-0.00000791,-0
 .00001121,0.00001526,0.00001877,0.00000984,0.00000068,-0.00001142,0.00
 000896,0.00000532,-0.00002624,-0.00010858,0.00101133,-0.00086011,0.000
 68530,-0.00118657,-0.00059812,0.08412188,0.00000988,-0.00000446,0.0000
 0696,-0.00005630,0.00002233,-0.00002680,-0.00006133,0.00008703,0.00004
 196,0.00005717,-0.00003295,-0.00004006,0.00006888,-0.00005407,-0.00000
 791,-0.00003813,-0.00002411,0.00002081,-0.00000292,0.00001039,-0.00000
 864,0.00010061,-0.00006164,-0.00004870,0.00005227,-0.00013613,0.000076
 35,0.00005150,0.00003892,0.00008395,-0.00002445,0.00000805,-0.00005528
 ,-0.00001655,0.00001768,-0.00001526,-0.00000449,0.00000083,-0.00001402
 ,-0.00023308,-0.00045329,-0.00058419,-0.00003721,0.00006769,-0.0000132
 4,-0.00003730,-0.00000299,-0.00000613,-0.00000919,0.00000981,0.0000212
 1,-0.00031111,0.00009641,-0.00068006,0.00296570,0.00350903,0.00224878,
 0.00076074,-0.00393013,0.00561309,0.07137389,-0.22297174,0.13156209,0.
 00617228,-0.00719450,0.00641537,-0.00134165,0.00306150,0.00455217,0.00
 000274,-0.00000483,-0.00000003,0.00000018,-0.00000046,-0.00000275,-0.0
 0000257,0.00000181,0.00000038,0.00000103,-0.00000015,0.00000157,0.0000
 0245,-0.00000055,-0.00000407,0.00000677,-0.00000035,-0.00000089,-0.000
 01208,-0.00001690,0.00001755,0.00001258,0.00000136,0.00000057,-0.00000
 776,-0.00000209,-0.00000566,0.00001344,-0.00000098,0.00001347,0.000023
 96,0.00002466,0.00005332,-0.00000256,-0.00003606,-0.00000817,0.0000173
 0,0.00001829,0.00001333,0.00000364,0.00000350,-0.00000515,-0.00000322,
 -0.00001584,-0.00000570,-0.00000044,0.00000549,-0.00000063,0.00000579,
 0.00000071,0.00000313,-0.00000572,-0.00000818,-0.00000491,-0.00001757,
 0.00001155,0.00000301,-0.00002696,0.00000323,-0.00002075,0.00000405,0.
 00000892,-0.00000138,0.00000047,-0.00000357,-0.00000319,0.00000078,-0.
 00000270,0.00000291,-0.00000950,-0.00000699,-0.00001441,0.00001714,-0.
 00000367,0.00000357,0.00000341,0.00000328,-0.00001767,-0.00010753,-0.0
 0021772,0.00031010,-0.00052596,-0.00108737,-0.00220532,-0.07814427,0.2
 3079756,-0.00000803,0.00000242,-0.00000005,0.00002540,-0.00001163,0.00
 000206,0.00002112,0.00001760,-0.00000485,-0.00001635,-0.00000715,0.000
 00354,-0.00001813,-0.00002931,-0.00000185,0.00001378,0.00002601,-0.000
 00259,0.00001064,-0.00001433,0.00000795,-0.00000380,0.00003708,-0.0000
 3096,0.00002025,-0.00013769,0.00009032,0.00004857,0.00002532,0.0000456
 8,-0.00001812,-0.00000458,-0.00001465,0.00003267,-0.00002411,-0.000011
 66,-0.00001333,-0.00000465,-0.00000074,-0.00024758,-0.00054101,-0.0006
 6934,-0.00007776,0.00007277,0.00003780,-0.00003736,-0.00001770,-0.0000
 1868,0.00000645,0.00000870,-0.00001793,0.00055969,-0.00059446,-0.00053
 512,0.00176335,0.00229522,0.00473725,0.00168691,-0.00250184,0.00453393
 ,-0.04328537,0.13148719,-0.13321128,-0.00805424,0.01475244,-0.00653079
 ,0.00467056,0.00422103,0.00241105,-0.00000288,0.00000124,-0.00000097,0
 .00000273,-0.00000017,-0.00000061,0.00000210,-0.00000237,0.00000202,-0
 .00000059,-0.00000019,-0.00000416,0.00000186,-0.00000522,-0.00000061,-
 0.00000297,-0.00000106,-0.00000035,0.00000333,0.00000832,0.00000660,-0
 .00000803,0.00000083,0.00000084,-0.00000509,0.00000676,-0.00000877,0.0
 0000270,-0.00000319,0.00000430,0.00000301,0.00000696,-0.00000753,0.000
 00242,-0.00000078,0.00000044,-0.00002554,0.00000072,-0.00000249,-0.000
 00494,0.00000971,-0.00000204,-0.00001049,0.00001531,0.00000708,-0.0000
 0030,0.00000477,-0.00000471,-0.00000246,0.00000289,0.00000476,0.000000
 38,-0.00000335,-0.00000251,-0.00001932,-0.00003768,0.00005301,-0.00003
 078,0.00000018,-0.00003772,-0.00000851,0.00001180,-0.00001238,0.000002
 78,0.00000065,0.00000216,0.00000462,-0.00000131,0.00000697,0.00000450,
 0.00001759,0.00001580,-0.00001079,0.00000145,-0.00001307,-0.00000088,-
 0.00000046,0.00001367,0.00013381,-0.00007448,0.00012467,-0.00120071,-0
 .00194700,-0.00183516,0.04528517,-0.14548505,0.13294099,-0.00000851,0.
 00000581,-0.00000484,0.00005650,-0.00003215,0.00002435,0.00005186,-0.0
 0004955,-0.00002902,-0.00004843,0.00002116,0.00002574,-0.00004455,0.00
 003105,0.00000210,0.00001971,0.00000920,-0.00000934,0.00002417,-0.0000
 0975,0.00001470,-0.00002042,0.00001415,0.00002823,-0.00006685,0.000258
 00,-0.00009810,-0.00005475,-0.00007487,-0.00003748,0.00003073,0.000019
 17,0.00002091,0.00000561,0.00001162,0.00001187,0.00001722,0.00000433,0
 .00000886,-0.00024724,-0.00034552,0.00026638,0.00003529,0.00014149,0.0
 0003455,-0.00005056,-0.00004696,-0.00003239,-0.00002975,-0.00000661,-0
 .00001381,0.00207098,0.00241469,0.00003346,0.00057086,-0.00047533,-0.0
 0012516,-0.00009588,-0.00158890,0.00424618,-0.01416409,0.00827849,-0.0
 0045895,-0.31046877,0.08952415,0.02639807,-0.00517679,0.00103292,0.002
 32382,-0.00000457,0.00000292,0.00000029,0.00000062,-0.00000032,0.00000
 202,0.00000359,-0.00000422,0.00000114,0.00000069,0.00000012,-0.0000042
 9,0.00000322,-0.00000338,0.00000086,-0.00000550,0.00000559,-0.00000172
 ,0.00000927,0.00000744,-0.00000230,-0.00001095,0.00000009,0.00000050,-
 0.00000343,0.00000568,-0.00000465,0.00000366,-0.00001259,-0.00000313,-
 0.00004189,-0.00001312,-0.00002562,-0.00000439,0.00002532,0.00001596,-
 0.00002342,-0.00001808,-0.00000832,-0.00000104,-0.00000533,-0.00000052
 ,0.00000411,0.00001461,0.00000827,-0.00000203,-0.00000234,-0.00000292,
 -0.00000167,-0.00000334,-0.00000204,0.00000341,0.00000916,0.00000864,-
 0.00000389,0.00000354,-0.00000866,-0.00001051,-0.00001599,-0.00000914,
 -0.00000978,0.00001863,-0.00002183,0.00000591,-0.00000173,0.00000974,0
 .00000822,0.00000256,-0.00000022,-0.00000818,0.00001367,0.00002570,-0.
 00000564,-0.00000225,-0.00002313,0.00001472,0.00002288,-0.00000034,-0.
 00012779,-0.00018488,-0.00028354,-0.00080961,0.00042836,-0.00005083,0.
 00045319,-0.00102923,-0.00084236,0.32780122,0.00000801,-0.00000155,0.0
 0000205,-0.00004825,0.00001980,-0.00001355,-0.00003906,-0.00002770,0.0
 0002730,0.00002793,0.00000689,-0.00001918,0.00001584,0.00002994,-0.000
 01492,-0.00001244,-0.00001889,0.00000971,0.00001171,-0.00000199,0.0000
 0135,0.00006186,0.00000990,-0.00004416,0.00003477,-0.00034399,0.000131
 52,0.00013128,0.00008500,0.00008353,-0.00006941,-0.00005414,-0.0000498
 5,-0.00003047,-0.00003939,-0.00003283,-0.00004002,-0.00000452,-0.00002
 638,0.00091547,0.00030026,-0.00039055,-0.00006328,-0.00025612,0.000131
 84,0.00005342,0.00005555,0.00005314,0.00004000,0.00000805,-0.00001509,
 0.00179107,-0.00075215,0.00614581,-0.00057392,-0.00090224,0.00025075,-
 0.00106445,0.00198199,0.00505936,-0.01462925,0.00864349,0.00105077,0.0
 8955761,-0.08023684,0.00240302,0.02412393,-0.00338487,-0.00326743,0.00
 000154,-0.00000462,-0.00000027,0.00000165,-0.00000137,-0.00000417,-0.0
 0000125,0.00000597,0.00000196,-0.00000495,0.00000089,0.00000340,0.0000
 0425,-0.00000056,-0.00000247,0.00000146,0.00000368,-0.00000175,0.00000
 666,0.00000150,0.00000799,-0.00000161,0.00000240,-0.00000038,-0.000005
 48,0.00000121,-0.00000399,-0.00000643,0.00002040,0.00001642,0.00005175
 ,0.00004329,0.00003284,-0.00000033,-0.00002925,-0.00003011,0.00004632,
 -0.00000564,0.00003037,-0.00000370,0.00001865,-0.00000457,-0.00000015,
 -0.00003484,-0.00001376,0.00000128,0.00001252,-0.00000029,0.00000096,0
 .00000497,0.00000577,-0.00000278,-0.00001916,-0.00001408,-0.00002765,-
 0.00002271,-0.00001005,-0.00001026,-0.00000380,-0.00000966,0.00000993,
 -0.00002083,0.00003303,-0.00000205,-0.00000639,-0.00001040,-0.00000287
 ,-0.00000311,0.00000741,-0.00001463,-0.00000972,0.00000912,0.00000255,
 0.00000445,0.00001895,-0.00001022,0.00000348,0.00000446,-0.00015279,-0
 .00039464,-0.00065500,-0.00074711,0.00026029,0.00012254,-0.00032589,-0
 .00111517,-0.00238180,-0.09781976,0.07711025,-0.00000780,0.00000221,-0
 .00000055,0.00003380,-0.00001680,0.00001084,0.00000710,0.00006962,-0.0
 0000619,-0.00000670,-0.00002486,0.00000165,-0.00001457,-0.00006040,0.0
 0001242,0.00002100,0.00003842,-0.00000270,-0.00002042,-0.00000320,-0.0
 0001524,0.00005305,-0.00004299,0.00001205,-0.00010314,0.00034127,-0.00
 009659,-0.00002988,-0.00006302,0.00000550,0.00000941,-0.00000652,-0.00
 001593,-0.00002546,0.00002047,0.00000030,0.00001398,0.00001296,-0.0000
 0832,-0.00064854,-0.00011075,0.00027938,0.00004619,0.00012492,0.000031
 04,-0.00005119,-0.00004178,-0.00002405,-0.00002866,-0.00000318,-0.0000
 0884,0.00012731,0.00588388,0.00242840,-0.00000256,0.00047145,-0.001298
 90,0.00382398,0.00524676,0.00174957,0.01858377,-0.00758376,0.00284235,
 0.02652275,0.00275161,-0.05028787,-0.01678832,0.00489744,0.00555698,-0
 .00000314,0.00000091,-0.00000007,0.00000182,0.00000026,-0.00000055,0.0
 0000154,-0.00000589,0.00000311,-0.00000060,-0.00000041,-0.00000405,-0.
 00000483,-0.00000204,0.00000118,-0.00000126,-0.00000953,0.00000248,-0.
 00000837,0.00000046,0.00000403,0.00000575,-0.00000245,0.00000260,0.000
 00510,0.00000129,0.00000229,-0.00000898,0.00001648,0.00000819,0.000029
 11,0.00003369,-0.00000331,-0.00000369,-0.00001132,0.00000201,0.0000093
 7,-0.00003035,0.00002423,-0.00000560,0.00000115,-0.00000294,0.00000894
 ,-0.00001688,0.00000040,-0.00000185,0.00000358,-0.00000179,0.00000197,
 -0.00000315,0.00000004,-0.00000185,0.00000115,0.00000410,0.00001836,-0
 .00000391,-0.00001205,-0.00001349,-0.00001816,-0.00000462,-0.00000646,
 0.00001654,-0.00001805,0.00000725,-0.00000492,0.00000834,0.00000673,0.
 00000149,0.00000134,-0.00000515,0.00000319,0.00001077,0.00000872,-0.00
 000742,-0.00001972,0.00001115,0.00002386,-0.00000832,-0.00027703,-0.00
 059648,-0.00061987,0.00100136,-0.00028709,0.00004610,-0.00138708,-0.00
 215091,-0.00172143,-0.03023873,-0.00645098,0.04294258,0.00001164,0.000
 00067,-0.00000857,-0.00001689,0.00002600,-0.00004257,-0.00000858,-0.00
 032483,0.00002688,-0.00000810,0.00010568,0.00000806,-0.00010105,0.0002
 4225,-0.00007985,0.00003409,-0.00000737,0.00000040,0.00003145,-0.00002
 433,0.00003673,0.00031350,0.00000154,-0.00023664,0.00013970,0.00028733
 ,0.00000769,-0.00005865,-0.00008447,0.00019407,0.00006658,-0.00000771,
 0.00004646,-0.00027923,0.00011391,-0.00005294,0.00004369,0.00002432,-0
 .00005569,-0.00000734,-0.00319832,0.00065144,-0.00000290,0.00039039,-0
 .00020598,-0.00010384,-0.00004913,-0.00007460,-0.00020355,-0.00001959,
 0.00031120,-0.01462328,-0.01416213,0.01861390,-0.00458635,0.00392255,0
 .00098379,-0.00052307,0.00078921,-0.00074417,0.00122439,0.00301697,-0.
 00014355,0.00958794,0.00544231,-0.00686661,-0.17032873,-0.07615190,0.1
 1406034,0.00000209,-0.00000133,0.00000590,-0.00000444,-0.00000306,-0.0
 0000038,-0.00000288,0.00001356,-0.00000347,-0.00001685,0.00000156,0.00
 000714,0.00000941,-0.00000163,-0.00000214,-0.00001046,0.00000721,-0.00
 000198,0.00000401,0.00003228,-0.00002412,-0.00002241,0.00000478,-0.000
 00691,-0.00000159,0.00000067,-0.00000177,0.00002030,-0.00001711,-0.000
 04755,-0.00010745,0.00001217,0.00004491,-0.00000157,0.00003565,0.00000
 150,0.00044703,-0.00006557,0.00010470,0.00002807,-0.00001887,-0.000016
 68,0.00007045,-0.00015706,-0.00004590,-0.00001143,0.00001457,0.0000014
 5,0.00002715,-0.00002307,-0.00001462,-0.00000112,-0.00000179,0.0000036
 5,-0.00002293,0.00112660,-0.00082311,0.00012997,-0.00000269,0.00007322
 ,0.00001608,0.00003998,-0.00002460,0.00000172,-0.00001803,0.00000286,0
 .00001155,0.00002680,-0.00005210,-0.00004092,0.00002169,0.00006855,0.0
 0016556,0.00000952,-0.00005423,0.00005378,0.00002182,-0.00034381,-0.00
 062261,-0.00096463,0.00099006,-0.00004443,-0.00030704,-0.00017689,0.00
 030579,0.00034048,-0.00035206,0.00035610,-0.00119072,-0.00066416,0.178
 66061,-0.00001064,0.00000504,-0.00000387,0.00006660,-0.00002053,0.0000
 0124,0.00002691,0.00005936,-0.00000506,-0.00001201,-0.00002124,-0.0000
 0191,0.00000725,-0.00005611,0.00000763,0.00000223,0.00000850,-0.000001
 42,0.00000508,0.00000985,-0.00000067,-0.00003827,-0.00010317,0.0000905
 0,0.00034122,-0.00021867,0.00006408,0.00022693,0.00013323,0.00007567,-
 0.00000089,-0.00005796,0.00003223,0.00006831,-0.00018588,-0.00001745,-
 0.00007924,-0.00003756,0.00002117,0.00025918,-0.00102391,-0.00307412,-
 0.00004884,0.00049005,-0.00002781,-0.00011562,-0.00011832,-0.00008780,
 -0.00005704,0.00002052,0.00019894,0.00588175,0.00693308,-0.00490057,0.
 00339486,0.00274058,0.00209575,0.00085413,-0.00088744,-0.00025605,0.00
 342926,-0.00061391,0.00546157,-0.01746193,-0.00669188,0.01499632,-0.07
 637950,-0.10721886,0.08686422,-0.00000594,-0.00000004,-0.00000164,0.00
 000665,-0.00000090,-0.00000314,0.00000385,-0.00000450,0.00000706,-0.00
 000394,0.00000087,-0.00001335,0.00000090,-0.00000266,-0.00000089,-0.00
 000059,0.00000098,-0.00000115,0.00000673,-0.00000765,0.00000782,0.0000
 0601,-0.00000230,0.00000218,-0.00000473,0.00000088,-0.00000369,-0.0000
 1288,0.00001791,0.00002389,-0.00003305,0.00011448,0.00003516,-0.000008
 14,0.00002378,0.00000521,0.00014850,-0.00109342,-0.00048657,-0.0000057
 9,0.00000421,0.00001890,-0.00003871,0.00005209,0.00003316,0.00000680,0
 .00000557,-0.00000574,-0.00001400,0.00002335,0.00001859,0.00000346,-0.
 00000853,-0.00001053,0.00016065,-0.00008313,0.00021733,-0.00003182,-0.
 00007362,-0.00005298,-0.00002536,0.00004405,-0.00004843,0.00002147,-0.
 00001856,0.00001319,0.00000874,0.00001747,0.00000913,-0.00007839,-0.00
 005470,0.00008374,0.00011142,-0.00006299,-0.00002979,-0.00000528,0.000
 11588,-0.00020565,0.00037172,0.00035089,-0.00024554,-0.00025718,-0.000
 41443,-0.00049692,-0.00084015,-0.00042049,0.00079761,-0.00058060,-0.00
 093859,-0.00240593,0.08072990,0.10926935,-0.00000695,0.00000226,0.0000
 0111,-0.00001670,0.00000939,0.00001209,-0.00002793,0.00015676,0.000016
 45,0.00002794,-0.00005810,-0.00002058,0.00003402,-0.00012160,0.0000126
 3,-0.00000657,0.00001982,0.00000452,-0.00001398,0.00001186,-0.00001498
 ,-0.00014028,-0.00000614,-0.00009277,0.00040635,-0.00086953,0.00023117
 ,0.00037396,0.00031849,0.00005857,-0.00004773,-0.00018890,0.00001836,0
 .00022184,-0.00026193,-0.00012620,-0.00016969,-0.00006953,0.00003677,-
 0.00223199,-0.00115827,-0.00226805,-0.00035244,0.00035389,0.00018705,-
 0.00007775,-0.00004608,-0.00002182,0.00007798,0.00010153,0.00008625,0.
 00120304,0.00284560,0.00120857,0.00150801,0.00222164,0.00430082,-0.000
 45297,-0.00057485,-0.00010038,-0.00102610,0.00551083,0.00315978,0.0121
 7671,0.00670162,-0.00701787,0.11478089,0.08615706,-0.15327456,-0.00000
 360,-0.00000451,-0.00000587,0.00001121,-0.00000092,-0.00000986,0.00000
 441,-0.00000088,0.00001199,-0.00000548,-0.00000277,-0.00000444,-0.0000
 0288,-0.00000207,-0.00000176,0.00000377,-0.00000588,0.00000129,0.00000
 690,-0.00000878,0.00001698,0.00001181,-0.00000336,0.00000057,-0.000005
 42,-0.00000218,-0.00000346,-0.00005721,0.00005564,0.00005724,0.0000790
 2,0.00024274,-0.00002642,-0.00001203,-0.00000158,-0.00002963,-0.000053
 93,-0.00044529,0.00007408,-0.00009761,0.00018653,-0.00000376,-0.000072
 39,0.00011206,0.00001100,0.00001592,0.00001294,-0.00000898,-0.00003619
 ,0.00004724,0.00004097,0.00000163,-0.00003669,-0.00003670,-0.00016503,
 -0.00013101,0.00053393,-0.00011707,-0.00001994,-0.00010033,0.00000003,
 0.00001751,-0.00002318,0.00001541,-0.00001662,-0.00000297,0.00001219,0
 .00001409,-0.00000152,0.00001705,-0.00006442,0.00005716,0.00005815,-0.
 00004535,0.00000890,-0.00003725,0.00000026,-0.00013178,-0.00004247,0.0
 0015870,-0.00009218,-0.00015801,-0.00051223,-0.00065961,0.00063556,0.0
 0037129,-0.00034787,-0.00116894,-0.00217675,-0.00181231,-0.12507723,-0
 .09879360,0.15609159\\0.00000088,-0.00000031,-0.00000100,-0.00000039,0
 .00000117,0.00000070,-0.00000072,0.00000293,0.00000009,0.00000067,0.00
 000172,-0.00000189,0.00000097,-0.00000155,-0.00000107,-0.00000053,0.00
 000084,0.00000059,-0.00000116,0.00000106,0.00000072,-0.00000132,0.0000
 0065,-0.00000084,0.00000065,0.00000146,-0.00000063,0.00000051,-0.00000
 053,-0.00000001,0.00000004,-0.00000043,0.00000020,0.00000095,-0.000000
 39,0.00000003,0.00000031,-0.00000016,-0.00000034,0.00000113,-0.0000024
 6,-0.00000004,0.00000029,-0.00000016,0.00000067,0.00000074,-0.00000080
 ,-0.00000031,0.00000049,-0.00000132,0.00000055,-0.00000108,-0.00000020
 ,0.00000026,-0.00000080,-0.00000008,0.00000066,-0.00000105,-0.00000004
 ,0.00000109,-0.00000142,-0.00000015,0.00000172,-0.00000035,-0.00000034
 ,0.00000087,0.,-0.00000067,0.00000046,0.00000063,0.00000131,-0.0000016
 5,0.00000057,0.00000085,-0.00000128,0.00000051,0.00000024,-0.00000162,
 0.00000034,0.00000010,-0.00000080,-0.00000064,0.00000126,-0.00000058,-
 0.00000077,0.00000102,-0.00000058,-0.00000098,0.00000071,0.00000045,-0
 .00000096,0.00000106,0.00000014,-0.00000065,0.00000059,0.00000013,-0.0
 0000017,0.00000058,-0.00000018,-0.00000038,0.00000040,0.00000068,0.000
 00003,0.00000060,-0.00000032,0.00000033,-0.00000071,0.00000027,0.00000
 086,-0.00000083,-0.00000032,0.00000066,-0.00000064,-0.00000043,0.00000
 114,0.00000021,-0.00000069,0.00000021,0.00000056,-0.00000102,0.0000006
 5,0.00000034,-0.00000090,0.00000021,-0.00000074,-0.00000010,0.00000025
 ,-0.00000062,0.00000010,0.00000075,-0.00000078,-0.00000038,0.00000073,
 -0.00000029,-0.00000059,0.00000092,-0.00000124,-0.00000023,0.,-0.00000
 086,0.00000084,0.00000010,-0.00000094,0.00000044,0.00000021,-0.0000012
 0,0.00000061,-0.00000041,0.00000029,0.00000019,-0.00000113,0.00000064,
 0.00000090,-0.00000113,-0.00000020,0.00000162,-0.00000061,-0.00000096,
 0.00000172,-0.00000006,-0.00000096,0.00000108\\\@
 The archive entry for this job was punched.


 NOTHING RESEMBLES A NEW PHENOMENON AS MUCH AS A MISTAKE.

                               -- ENRICO FERMI (?)
 Job cpu time:       3 days 23 hours 37 minutes 38.8 seconds.
 Elapsed time:       0 days  4 hours 47 minutes 17.8 seconds.
 File lengths (MBytes):  RWF=   3356 Int=      0 D2E=      0 Chk=     66 Scr=      1
 Normal termination of Gaussian 16 at Wed Jan  8 12:20:52 2025.
