 Entering Gaussian System, Link 0=g16
 Input=gjfs/data_set_12-nBA_dormant-30a.gjf
 Output=gjfs/data_set_12-nBA_dormant-30a.log
 Initial command:
 /usr/local/intel/g16/l1.exe "/scr/Gau-276027.inp" -scrdir="/scr/"
 Entering Link 1 = /usr/local/intel/g16/l1.exe PID=    276029.
  
 Copyright (c) 1988-2019, Gaussian, Inc.  All Rights Reserved.
  
 This is part of the Gaussian(R) 16 program.  It is based on
 the Gaussian(R) 09 system (copyright 2009, Gaussian, Inc.),
 the Gaussian(R) 03 system (copyright 2003, Gaussian, Inc.),
 the Gaussian(R) 98 system (copyright 1998, Gaussian, Inc.),
 the Gaussian(R) 94 system (copyright 1995, Gaussian, Inc.),
 the Gaussian 92(TM) system (copyright 1992, Gaussian, Inc.),
 the Gaussian 90(TM) system (copyright 1990, Gaussian, Inc.),
 the Gaussian 88(TM) system (copyright 1988, Gaussian, Inc.),
 the Gaussian 86(TM) system (copyright 1986, Carnegie Mellon
 University), and the Gaussian 82(TM) system (copyright 1983,
 Carnegie Mellon University). Gaussian is a federally registered
 trademark of Gaussian, Inc.
  
 This software contains proprietary and confidential information,
 including trade secrets, belonging to Gaussian, Inc.
  
 This software is provided under written license and may be
 used, copied, transmitted, or stored only in accord with that
 written license.
  
 The following legend is applicable only to US Government
 contracts under FAR:
  
                    RESTRICTED RIGHTS LEGEND
  
 Use, reproduction and disclosure by the US Government is
 subject to restrictions as set forth in subparagraphs (a)
 and (c) of the Commercial Computer Software - Restricted
 Rights clause in FAR 52.227-19.
  
 Gaussian, Inc.
 340 Quinnipiac St., Bldg. 40, Wallingford CT 06492
  
  
 ---------------------------------------------------------------
 Warning -- This program may not be used in any manner that
 competes with the business of Gaussian, Inc. or will provide
 assistance to any competitor of Gaussian, Inc.  The licensee
 of this program is prohibited from giving any competitor of
 Gaussian, Inc. access to this program.  By using this program,
 the user acknowledges that Gaussian, Inc. is engaged in the
 business of creating and licensing software in the field of
 computational chemistry and represents and warrants to the
 licensee that it is not a competitor of Gaussian, Inc. and that
 it will not use this program in any manner prohibited above.
 ---------------------------------------------------------------
  

 Cite this work as:
 Gaussian 16, Revision C.01,
 M. J. Frisch, G. W. Trucks, H. B. Schlegel, G. E. Scuseria, 
 M. A. Robb, J. R. Cheeseman, G. Scalmani, V. Barone, 
 G. A. Petersson, H. Nakatsuji, X. Li, M. Caricato, A. V. Marenich, 
 J. Bloino, B. G. Janesko, R. Gomperts, B. Mennucci, H. P. Hratchian, 
 J. V. Ortiz, A. F. Izmaylov, J. L. Sonnenberg, D. Williams-Young, 
 F. Ding, F. Lipparini, F. Egidi, J. Goings, B. Peng, A. Petrone, 
 T. Henderson, D. Ranasinghe, V. G. Zakrzewski, J. Gao, N. Rega, 
 G. Zheng, W. Liang, M. Hada, M. Ehara, K. Toyota, R. Fukuda, 
 J. Hasegawa, M. Ishida, T. Nakajima, Y. Honda, O. Kitao, H. Nakai, 
 T. Vreven, K. Throssell, J. A. Montgomery, Jr., J. E. Peralta, 
 F. Ogliaro, M. J. Bearpark, J. J. Heyd, E. N. Brothers, K. N. Kudin, 
 V. N. Staroverov, T. A. Keith, R. Kobayashi, J. Normand, 
 K. Raghavachari, A. P. Rendell, J. C. Burant, S. S. Iyengar, 
 J. Tomasi, M. Cossi, J. M. Millam, M. Klene, C. Adamo, R. Cammi, 
 J. W. Ochterski, R. L. Martin, K. Morokuma, O. Farkas, 
 J. B. Foresman, and D. J. Fox, Gaussian, Inc., Wallingford CT, 2019.
 
 ******************************************
 Gaussian 16:  ES64L-G16RevC.01  3-Jul-2019
                 7-Jan-2025 
 ******************************************
 %nprocshared=20
 Will use up to   20 processors via shared memory.
 %mem=30GB
 %chk=outputs/data_set_12-nBA_dormant-30a.chk
 ----------------------------------
 #p M062X/DEF2TZVP opt freq pop=NBO
 ----------------------------------
 1/18=20,19=15,26=3,38=1/1,3;
 2/9=110,12=2,17=6,18=5,40=1/2;
 3/5=44,7=101,11=2,25=1,30=1,71=1,74=-55/1,2,3;
 4//1;
 5/5=2,38=5/2;
 6/7=2,8=2,9=2,10=2,28=1,40=1/1,7;
 7//1,2,3,16;
 1/18=20,19=15,26=3/3(2);
 2/9=110/2;
 99//99;
 2/9=110/2;
 3/5=44,7=101,11=2,25=1,30=1,71=1,74=-55/1,2,3;
 4/5=5,16=3,69=1/1;
 5/5=2,38=5/2;
 7//1,2,3,16;
 1/18=20,19=15,26=3/3(-5);
 2/9=110/2;
 6/7=2,8=2,9=2,10=2,19=2,28=1,40=1/1,7;
 99/9=1/99;
 Leave Link    1 at Tue Jan  7 20:07:52 2025, MaxMem=  4026531840 cpu:               1.2 elap:               0.1
 (Enter /usr/local/intel/g16/l101.exe)
 ---------------------------
 data_set_12-nBA_dormant-30a
 ---------------------------
 Symbolic Z-matrix:
 Charge =  0 Multiplicity = 1
 C                     0.53385  -3.15102  -0.25265 
 C                    -0.53013  -2.44799  -1.0871 
 C                    -1.85475  -2.32809  -0.32567 
 O                    -2.10676  -2.90668   0.73759 
 O                    -2.7654   -1.57272  -0.99772 
 C                    -4.07878  -1.37144  -0.35846 
 C                    -4.89247  -0.49328  -1.29386 
 O                    -0.09554  -1.18195  -1.66482 
 N                     0.3509   -0.21153  -0.68651 
 C                     1.80493   0.15504  -0.93459 
 C                     1.79276   1.6271   -0.55994 
 C                     0.49146   2.11106  -0.43226 
 C                    -0.5356    1.01359  -0.6921 
 C                     0.25873   3.45116  -0.11028 
 C                     1.35777   4.30483   0.06734 
 C                     2.67052   3.81452  -0.06245 
 C                     2.89476   2.46518  -0.37285 
 C                    -1.23305   1.23065  -2.054 
 C                    -1.54023   0.95976   0.47151 
 C                     2.21627   0.00488  -2.4135 
 C                     2.69994  -0.64946   0.01802 
 C                     2.52418  -0.48362   1.40606 
 C                     3.28811  -1.21312   2.32112 
 C                     4.25563  -2.12433   1.86347 
 C                     4.44986  -2.285     0.48638 
 C                     3.67721  -1.55024  -0.42868 
 H                     0.78541  -2.56576   0.63368 
 H                     1.43938  -3.2873   -0.84869 
 H                     0.16586  -4.12724   0.07334 
 H                    -0.74773  -3.02858  -1.99146 
 H                    -3.91557  -0.90081   0.61512 
 H                    -4.53775  -2.35242  -0.20034 
 H                    -5.88412  -0.31809  -0.86374 
 H                    -5.01282  -0.97022  -2.27078 
 H                    -4.39977   0.47274  -1.43138 
 H                    -0.75237   3.82459   0.01697 
 H                     1.19592   5.3482    0.31756 
 H                     3.51196   4.48296   0.08744 
 H                     3.90426   2.07351  -0.45144 
 H                     3.25587   0.32531  -2.53934 
 H                     1.58862   0.63633  -3.04606 
 H                     2.10757  -1.02605  -2.75632 
 H                     1.7837    0.2245    1.76522 
 H                     3.13368  -1.07356   3.38612 
 H                     4.84901  -2.69419   2.57096 
 H                     5.19752  -2.98169   0.12085 
 H                     3.84304  -1.69929  -1.48963 
 C                    -1.29936   0.14584   1.59075 
 C                    -2.16893   0.15488   2.68888 
 C                    -3.29346   0.99338   2.69602 
 C                    -3.54182   1.81398   1.58549 
 C                    -2.67333   1.79476   0.48513 
 H                    -1.98022   0.45328  -2.22272 
 H                    -0.50122   1.19155  -2.86397 
 H                    -1.7066    2.21673  -2.08449 
 H                    -0.44025  -0.51361   1.58019 
 H                    -1.97203  -0.50053   3.53038 
 H                    -3.96572   1.00385   3.54759 
 H                    -4.40936   2.46623   1.5733 
 H                    -2.89528   2.43289  -0.36386 
 
 ITRead=  0  0  0  0  0  0  0  0  0  0  0  0  0  0  0  0  0  0  0  0
 ITRead=  0  0  0  0  0  0  0  0  0  0  0  0  0  0  0  0  0  0  0  0
 ITRead=  0  0  0  0  0  0  0  0  0  0  0  0  0  0  0  0  0  0  0  0
 MicOpt= -1 -1 -1 -1 -1 -1 -1 -1 -1 -1 -1 -1 -1 -1 -1 -1 -1 -1 -1 -1
 MicOpt= -1 -1 -1 -1 -1 -1 -1 -1 -1 -1 -1 -1 -1 -1 -1 -1 -1 -1 -1 -1
 MicOpt= -1 -1 -1 -1 -1 -1 -1 -1 -1 -1 -1 -1 -1 -1 -1 -1 -1 -1 -1 -1
 NAtoms=     60 NQM=       60 NQMF=       0 NMMI=      0 NMMIF=      0
                NMic=       0 NMicF=      0.
                    Isotopes and Nuclear Properties:
 (Nuclear quadrupole moments (NQMom) in fm**2, nuclear magnetic moments (NMagM)
  in nuclear magnetons)

  Atom         1           2           3           4           5           6           7           8           9          10
 IAtWgt=          12          12          12          16          16          12          12          16          14          12
 AtmWgt=  12.0000000  12.0000000  12.0000000  15.9949146  15.9949146  12.0000000  12.0000000  15.9949146  14.0030740  12.0000000
 NucSpn=           0           0           0           0           0           0           0           0           2           0
 AtZEff=  -0.0000000  -0.0000000  -0.0000000  -0.0000000  -0.0000000  -0.0000000  -0.0000000  -0.0000000  -0.0000000  -0.0000000
 NQMom=    0.0000000   0.0000000   0.0000000   0.0000000   0.0000000   0.0000000   0.0000000   0.0000000   2.0440000   0.0000000
 NMagM=    0.0000000   0.0000000   0.0000000   0.0000000   0.0000000   0.0000000   0.0000000   0.0000000   0.4037610   0.0000000
 AtZNuc=   6.0000000   6.0000000   6.0000000   8.0000000   8.0000000   6.0000000   6.0000000   8.0000000   7.0000000   6.0000000

  Atom        11          12          13          14          15          16          17          18          19          20
 IAtWgt=          12          12          12          12          12          12          12          12          12          12
 AtmWgt=  12.0000000  12.0000000  12.0000000  12.0000000  12.0000000  12.0000000  12.0000000  12.0000000  12.0000000  12.0000000
 NucSpn=           0           0           0           0           0           0           0           0           0           0
 AtZEff=  -0.0000000  -0.0000000  -0.0000000  -0.0000000  -0.0000000  -0.0000000  -0.0000000  -0.0000000  -0.0000000  -0.0000000
 NQMom=    0.0000000   0.0000000   0.0000000   0.0000000   0.0000000   0.0000000   0.0000000   0.0000000   0.0000000   0.0000000
 NMagM=    0.0000000   0.0000000   0.0000000   0.0000000   0.0000000   0.0000000   0.0000000   0.0000000   0.0000000   0.0000000
 AtZNuc=   6.0000000   6.0000000   6.0000000   6.0000000   6.0000000   6.0000000   6.0000000   6.0000000   6.0000000   6.0000000

  Atom        21          22          23          24          25          26          27          28          29          30
 IAtWgt=          12          12          12          12          12          12           1           1           1           1
 AtmWgt=  12.0000000  12.0000000  12.0000000  12.0000000  12.0000000  12.0000000   1.0078250   1.0078250   1.0078250   1.0078250
 NucSpn=           0           0           0           0           0           0           1           1           1           1
 AtZEff=  -0.0000000  -0.0000000  -0.0000000  -0.0000000  -0.0000000  -0.0000000  -0.0000000  -0.0000000  -0.0000000  -0.0000000
 NQMom=    0.0000000   0.0000000   0.0000000   0.0000000   0.0000000   0.0000000   0.0000000   0.0000000   0.0000000   0.0000000
 NMagM=    0.0000000   0.0000000   0.0000000   0.0000000   0.0000000   0.0000000   2.7928460   2.7928460   2.7928460   2.7928460
 AtZNuc=   6.0000000   6.0000000   6.0000000   6.0000000   6.0000000   6.0000000   1.0000000   1.0000000   1.0000000   1.0000000

  Atom        31          32          33          34          35          36          37          38          39          40
 IAtWgt=           1           1           1           1           1           1           1           1           1           1
 AtmWgt=   1.0078250   1.0078250   1.0078250   1.0078250   1.0078250   1.0078250   1.0078250   1.0078250   1.0078250   1.0078250
 NucSpn=           1           1           1           1           1           1           1           1           1           1
 AtZEff=  -0.0000000  -0.0000000  -0.0000000  -0.0000000  -0.0000000  -0.0000000  -0.0000000  -0.0000000  -0.0000000  -0.0000000
 NQMom=    0.0000000   0.0000000   0.0000000   0.0000000   0.0000000   0.0000000   0.0000000   0.0000000   0.0000000   0.0000000
 NMagM=    2.7928460   2.7928460   2.7928460   2.7928460   2.7928460   2.7928460   2.7928460   2.7928460   2.7928460   2.7928460
 AtZNuc=   1.0000000   1.0000000   1.0000000   1.0000000   1.0000000   1.0000000   1.0000000   1.0000000   1.0000000   1.0000000

  Atom        41          42          43          44          45          46          47          48          49          50
 IAtWgt=           1           1           1           1           1           1           1          12          12          12
 AtmWgt=   1.0078250   1.0078250   1.0078250   1.0078250   1.0078250   1.0078250   1.0078250  12.0000000  12.0000000  12.0000000
 NucSpn=           1           1           1           1           1           1           1           0           0           0
 AtZEff=  -0.0000000  -0.0000000  -0.0000000  -0.0000000  -0.0000000  -0.0000000  -0.0000000  -0.0000000  -0.0000000  -0.0000000
 NQMom=    0.0000000   0.0000000   0.0000000   0.0000000   0.0000000   0.0000000   0.0000000   0.0000000   0.0000000   0.0000000
 NMagM=    2.7928460   2.7928460   2.7928460   2.7928460   2.7928460   2.7928460   2.7928460   0.0000000   0.0000000   0.0000000
 AtZNuc=   1.0000000   1.0000000   1.0000000   1.0000000   1.0000000   1.0000000   1.0000000   6.0000000   6.0000000   6.0000000

  Atom        51          52          53          54          55          56          57          58          59          60
 IAtWgt=          12          12           1           1           1           1           1           1           1           1
 AtmWgt=  12.0000000  12.0000000   1.0078250   1.0078250   1.0078250   1.0078250   1.0078250   1.0078250   1.0078250   1.0078250
 NucSpn=           0           0           1           1           1           1           1           1           1           1
 AtZEff=  -0.0000000  -0.0000000  -0.0000000  -0.0000000  -0.0000000  -0.0000000  -0.0000000  -0.0000000  -0.0000000  -0.0000000
 NQMom=    0.0000000   0.0000000   0.0000000   0.0000000   0.0000000   0.0000000   0.0000000   0.0000000   0.0000000   0.0000000
 NMagM=    0.0000000   0.0000000   2.7928460   2.7928460   2.7928460   2.7928460   2.7928460   2.7928460   2.7928460   2.7928460
 AtZNuc=   6.0000000   6.0000000   1.0000000   1.0000000   1.0000000   1.0000000   1.0000000   1.0000000   1.0000000   1.0000000
 Leave Link  101 at Tue Jan  7 20:07:53 2025, MaxMem=  4026531840 cpu:              28.9 elap:               1.5
 (Enter /usr/local/intel/g16/l103.exe)

 GradGradGradGradGradGradGradGradGradGradGradGradGradGradGradGradGradGrad
 Berny optimization.
 Initialization pass.
                           ----------------------------
                           !    Initial Parameters    !
                           ! (Angstroms and Degrees)  !
 --------------------------                            --------------------------
 ! Name  Definition              Value          Derivative Info.                !
 --------------------------------------------------------------------------------
 ! R1    R(1,2)                  1.524          estimate D2E/DX2                !
 ! R2    R(1,27)                 1.0915         estimate D2E/DX2                !
 ! R3    R(1,28)                 1.0926         estimate D2E/DX2                !
 ! R4    R(1,29)                 1.093          estimate D2E/DX2                !
 ! R5    R(2,3)                  1.5326         estimate D2E/DX2                !
 ! R6    R(2,8)                  1.4579         estimate D2E/DX2                !
 ! R7    R(2,30)                 1.0965         estimate D2E/DX2                !
 ! R8    R(3,4)                  1.2364         estimate D2E/DX2                !
 ! R9    R(3,5)                  1.3607         estimate D2E/DX2                !
 ! R10   R(5,6)                  1.4745         estimate D2E/DX2                !
 ! R11   R(6,7)                  1.5193         estimate D2E/DX2                !
 ! R12   R(6,31)                 1.0936         estimate D2E/DX2                !
 ! R13   R(6,32)                 1.0945         estimate D2E/DX2                !
 ! R14   R(7,33)                 1.095          estimate D2E/DX2                !
 ! R15   R(7,34)                 1.0938         estimate D2E/DX2                !
 ! R16   R(7,35)                 1.0931         estimate D2E/DX2                !
 ! R17   R(8,9)                  1.4485         estimate D2E/DX2                !
 ! R18   R(9,10)                 1.5199         estimate D2E/DX2                !
 ! R19   R(9,13)                 1.5122         estimate D2E/DX2                !
 ! R20   R(10,11)                1.519          estimate D2E/DX2                !
 ! R21   R(10,20)                1.5424         estimate D2E/DX2                !
 ! R22   R(10,21)                1.5348         estimate D2E/DX2                !
 ! R23   R(11,12)                1.3942         estimate D2E/DX2                !
 ! R24   R(11,17)                1.3971         estimate D2E/DX2                !
 ! R25   R(12,13)                1.5254         estimate D2E/DX2                !
 ! R26   R(12,14)                1.3978         estimate D2E/DX2                !
 ! R27   R(13,18)                1.5454         estimate D2E/DX2                !
 ! R28   R(13,19)                1.5382         estimate D2E/DX2                !
 ! R29   R(14,15)                1.4029         estimate D2E/DX2                !
 ! R30   R(14,36)                1.0853         estimate D2E/DX2                !
 ! R31   R(15,16)                1.4073         estimate D2E/DX2                !
 ! R32   R(15,37)                1.0851         estimate D2E/DX2                !
 ! R33   R(16,17)                1.4026         estimate D2E/DX2                !
 ! R34   R(16,38)                1.085          estimate D2E/DX2                !
 ! R35   R(17,39)                1.0857         estimate D2E/DX2                !
 ! R36   R(18,53)                1.0913         estimate D2E/DX2                !
 ! R37   R(18,54)                1.0923         estimate D2E/DX2                !
 ! R38   R(18,55)                1.0943         estimate D2E/DX2                !
 ! R39   R(19,48)                1.4047         estimate D2E/DX2                !
 ! R40   R(19,52)                1.4076         estimate D2E/DX2                !
 ! R41   R(20,40)                1.0951         estimate D2E/DX2                !
 ! R42   R(20,41)                1.0922         estimate D2E/DX2                !
 ! R43   R(20,42)                1.0919         estimate D2E/DX2                !
 ! R44   R(21,22)                1.4089         estimate D2E/DX2                !
 ! R45   R(21,26)                1.4021         estimate D2E/DX2                !
 ! R46   R(22,23)                1.3975         estimate D2E/DX2                !
 ! R47   R(22,43)                1.0857         estimate D2E/DX2                !
 ! R48   R(23,24)                1.4056         estimate D2E/DX2                !
 ! R49   R(23,44)                1.0852         estimate D2E/DX2                !
 ! R50   R(24,25)                1.4            estimate D2E/DX2                !
 ! R51   R(24,45)                1.0851         estimate D2E/DX2                !
 ! R52   R(25,26)                1.4051         estimate D2E/DX2                !
 ! R53   R(25,46)                1.0854         estimate D2E/DX2                !
 ! R54   R(26,47)                1.0841         estimate D2E/DX2                !
 ! R55   R(48,49)                1.4008         estimate D2E/DX2                !
 ! R56   R(48,56)                1.0831         estimate D2E/DX2                !
 ! R57   R(49,50)                1.4027         estimate D2E/DX2                !
 ! R58   R(49,57)                1.0846         estimate D2E/DX2                !
 ! R59   R(50,51)                1.403          estimate D2E/DX2                !
 ! R60   R(50,58)                1.085          estimate D2E/DX2                !
 ! R61   R(51,52)                1.4019         estimate D2E/DX2                !
 ! R62   R(51,59)                1.0854         estimate D2E/DX2                !
 ! R63   R(52,60)                1.085          estimate D2E/DX2                !
 ! A1    A(2,1,27)             110.9877         estimate D2E/DX2                !
 ! A2    A(2,1,28)             109.7215         estimate D2E/DX2                !
 ! A3    A(2,1,29)             109.8932         estimate D2E/DX2                !
 ! A4    A(27,1,28)            108.5932         estimate D2E/DX2                !
 ! A5    A(27,1,29)            108.3185         estimate D2E/DX2                !
 ! A6    A(28,1,29)            109.288          estimate D2E/DX2                !
 ! A7    A(1,2,3)              111.5596         estimate D2E/DX2                !
 ! A8    A(1,2,8)              114.1702         estimate D2E/DX2                !
 ! A9    A(1,2,30)             110.2356         estimate D2E/DX2                !
 ! A10   A(3,2,8)              112.7425         estimate D2E/DX2                !
 ! A11   A(3,2,30)             106.2407         estimate D2E/DX2                !
 ! A12   A(8,2,30)             101.0778         estimate D2E/DX2                !
 ! A13   A(2,3,4)              124.5274         estimate D2E/DX2                !
 ! A14   A(2,3,5)              112.1161         estimate D2E/DX2                !
 ! A15   A(4,3,5)              123.2356         estimate D2E/DX2                !
 ! A16   A(3,5,6)              117.2436         estimate D2E/DX2                !
 ! A17   A(5,6,7)              106.7999         estimate D2E/DX2                !
 ! A18   A(5,6,31)             108.1664         estimate D2E/DX2                !
 ! A19   A(5,6,32)             108.2884         estimate D2E/DX2                !
 ! A20   A(7,6,31)             112.2901         estimate D2E/DX2                !
 ! A21   A(7,6,32)             112.4828         estimate D2E/DX2                !
 ! A22   A(31,6,32)            108.643          estimate D2E/DX2                !
 ! A23   A(6,7,33)             109.6122         estimate D2E/DX2                !
 ! A24   A(6,7,34)             110.9034         estimate D2E/DX2                !
 ! A25   A(6,7,35)             110.2955         estimate D2E/DX2                !
 ! A26   A(33,7,34)            108.7204         estimate D2E/DX2                !
 ! A27   A(33,7,35)            108.4348         estimate D2E/DX2                !
 ! A28   A(34,7,35)            108.8198         estimate D2E/DX2                !
 ! A29   A(2,8,9)              113.9554         estimate D2E/DX2                !
 ! A30   A(8,9,10)             110.2546         estimate D2E/DX2                !
 ! A31   A(8,9,13)             111.0748         estimate D2E/DX2                !
 ! A32   A(10,9,13)            111.3963         estimate D2E/DX2                !
 ! A33   A(9,10,11)            100.7078         estimate D2E/DX2                !
 ! A34   A(9,10,20)            112.8398         estimate D2E/DX2                !
 ! A35   A(9,10,21)            109.2766         estimate D2E/DX2                !
 ! A36   A(11,10,20)           109.4498         estimate D2E/DX2                !
 ! A37   A(11,10,21)           111.0722         estimate D2E/DX2                !
 ! A38   A(20,10,21)           112.8655         estimate D2E/DX2                !
 ! A39   A(10,11,12)           111.4966         estimate D2E/DX2                !
 ! A40   A(10,11,17)           127.4483         estimate D2E/DX2                !
 ! A41   A(12,11,17)           121.0457         estimate D2E/DX2                !
 ! A42   A(11,12,13)           111.2904         estimate D2E/DX2                !
 ! A43   A(11,12,14)           120.6173         estimate D2E/DX2                !
 ! A44   A(13,12,14)           128.0915         estimate D2E/DX2                !
 ! A45   A(9,13,12)            100.8086         estimate D2E/DX2                !
 ! A46   A(9,13,18)            112.4331         estimate D2E/DX2                !
 ! A47   A(9,13,19)            110.5924         estimate D2E/DX2                !
 ! A48   A(12,13,18)           110.6666         estimate D2E/DX2                !
 ! A49   A(12,13,19)           109.6375         estimate D2E/DX2                !
 ! A50   A(18,13,19)           112.1355         estimate D2E/DX2                !
 ! A51   A(12,14,15)           118.8242         estimate D2E/DX2                !
 ! A52   A(12,14,36)           120.7972         estimate D2E/DX2                !
 ! A53   A(15,14,36)           120.371          estimate D2E/DX2                !
 ! A54   A(14,15,16)           120.4687         estimate D2E/DX2                !
 ! A55   A(14,15,37)           119.8311         estimate D2E/DX2                !
 ! A56   A(16,15,37)           119.6967         estimate D2E/DX2                !
 ! A57   A(15,16,17)           120.3118         estimate D2E/DX2                !
 ! A58   A(15,16,38)           119.7362         estimate D2E/DX2                !
 ! A59   A(17,16,38)           119.9497         estimate D2E/DX2                !
 ! A60   A(11,17,16)           118.7266         estimate D2E/DX2                !
 ! A61   A(11,17,39)           120.4874         estimate D2E/DX2                !
 ! A62   A(16,17,39)           120.7791         estimate D2E/DX2                !
 ! A63   A(13,18,53)           110.192          estimate D2E/DX2                !
 ! A64   A(13,18,54)           110.2471         estimate D2E/DX2                !
 ! A65   A(13,18,55)           110.2677         estimate D2E/DX2                !
 ! A66   A(53,18,54)           108.5757         estimate D2E/DX2                !
 ! A67   A(53,18,55)           109.955          estimate D2E/DX2                !
 ! A68   A(54,18,55)           107.5488         estimate D2E/DX2                !
 ! A69   A(13,19,48)           120.7319         estimate D2E/DX2                !
 ! A70   A(13,19,52)           120.817          estimate D2E/DX2                !
 ! A71   A(48,19,52)           118.2975         estimate D2E/DX2                !
 ! A72   A(10,20,40)           109.5646         estimate D2E/DX2                !
 ! A73   A(10,20,41)           110.23           estimate D2E/DX2                !
 ! A74   A(10,20,42)           111.4959         estimate D2E/DX2                !
 ! A75   A(40,20,41)           108.0486         estimate D2E/DX2                !
 ! A76   A(40,20,42)           109.5548         estimate D2E/DX2                !
 ! A77   A(41,20,42)           107.869          estimate D2E/DX2                !
 ! A78   A(10,21,22)           118.4909         estimate D2E/DX2                !
 ! A79   A(10,21,26)           123.0547         estimate D2E/DX2                !
 ! A80   A(22,21,26)           118.4522         estimate D2E/DX2                !
 ! A81   A(21,22,23)           121.0263         estimate D2E/DX2                !
 ! A82   A(21,22,43)           119.1936         estimate D2E/DX2                !
 ! A83   A(23,22,43)           119.7799         estimate D2E/DX2                !
 ! A84   A(22,23,24)           120.0961         estimate D2E/DX2                !
 ! A85   A(22,23,44)           119.8469         estimate D2E/DX2                !
 ! A86   A(24,23,44)           120.057          estimate D2E/DX2                !
 ! A87   A(23,24,25)           119.3507         estimate D2E/DX2                !
 ! A88   A(23,24,45)           120.303          estimate D2E/DX2                !
 ! A89   A(25,24,45)           120.3458         estimate D2E/DX2                !
 ! A90   A(24,25,26)           120.2852         estimate D2E/DX2                !
 ! A91   A(24,25,46)           120.0348         estimate D2E/DX2                !
 ! A92   A(26,25,46)           119.6797         estimate D2E/DX2                !
 ! A93   A(21,26,25)           120.7805         estimate D2E/DX2                !
 ! A94   A(21,26,47)           120.4445         estimate D2E/DX2                !
 ! A95   A(25,26,47)           118.7722         estimate D2E/DX2                !
 ! A96   A(19,48,49)           120.961          estimate D2E/DX2                !
 ! A97   A(19,48,56)           118.7533         estimate D2E/DX2                !
 ! A98   A(49,48,56)           120.2642         estimate D2E/DX2                !
 ! A99   A(48,49,50)           120.3651         estimate D2E/DX2                !
 ! A100  A(48,49,57)           119.4472         estimate D2E/DX2                !
 ! A101  A(50,49,57)           120.1841         estimate D2E/DX2                !
 ! A102  A(49,50,51)           119.177          estimate D2E/DX2                !
 ! A103  A(49,50,58)           120.429          estimate D2E/DX2                !
 ! A104  A(51,50,58)           120.3933         estimate D2E/DX2                !
 ! A105  A(50,51,52)           120.2381         estimate D2E/DX2                !
 ! A106  A(50,51,59)           120.1216         estimate D2E/DX2                !
 ! A107  A(52,51,59)           119.6402         estimate D2E/DX2                !
 ! A108  A(19,52,51)           120.9578         estimate D2E/DX2                !
 ! A109  A(19,52,60)           120.3968         estimate D2E/DX2                !
 ! A110  A(51,52,60)           118.6438         estimate D2E/DX2                !
 ! D1    D(27,1,2,3)           -64.2086         estimate D2E/DX2                !
 ! D2    D(27,1,2,8)            65.0586         estimate D2E/DX2                !
 ! D3    D(27,1,2,30)          178.0069         estimate D2E/DX2                !
 ! D4    D(28,1,2,3)           175.7715         estimate D2E/DX2                !
 ! D5    D(28,1,2,8)           -54.9613         estimate D2E/DX2                !
 ! D6    D(28,1,2,30)           57.987          estimate D2E/DX2                !
 ! D7    D(29,1,2,3)            55.5805         estimate D2E/DX2                !
 ! D8    D(29,1,2,8)          -175.1523         estimate D2E/DX2                !
 ! D9    D(29,1,2,30)          -62.204          estimate D2E/DX2                !
 ! D10   D(1,2,3,4)            -10.7798         estimate D2E/DX2                !
 ! D11   D(1,2,3,5)            173.1163         estimate D2E/DX2                !
 ! D12   D(8,2,3,4)           -140.7948         estimate D2E/DX2                !
 ! D13   D(8,2,3,5)             43.1013         estimate D2E/DX2                !
 ! D14   D(30,2,3,4)           109.3827         estimate D2E/DX2                !
 ! D15   D(30,2,3,5)           -66.7211         estimate D2E/DX2                !
 ! D16   D(1,2,8,9)            -57.9711         estimate D2E/DX2                !
 ! D17   D(3,2,8,9)             70.7008         estimate D2E/DX2                !
 ! D18   D(30,2,8,9)          -176.2775         estimate D2E/DX2                !
 ! D19   D(2,3,5,6)           -179.3813         estimate D2E/DX2                !
 ! D20   D(4,3,5,6)              4.4562         estimate D2E/DX2                !
 ! D21   D(3,5,6,7)            179.4081         estimate D2E/DX2                !
 ! D22   D(3,5,6,31)            58.3399         estimate D2E/DX2                !
 ! D23   D(3,5,6,32)           -59.227          estimate D2E/DX2                !
 ! D24   D(5,6,7,33)           179.7042         estimate D2E/DX2                !
 ! D25   D(5,6,7,34)            59.6505         estimate D2E/DX2                !
 ! D26   D(5,6,7,35)           -60.9751         estimate D2E/DX2                !
 ! D27   D(31,6,7,33)          -61.8881         estimate D2E/DX2                !
 ! D28   D(31,6,7,34)          178.0582         estimate D2E/DX2                !
 ! D29   D(31,6,7,35)           57.4326         estimate D2E/DX2                !
 ! D30   D(32,6,7,33)           61.0381         estimate D2E/DX2                !
 ! D31   D(32,6,7,34)          -59.0156         estimate D2E/DX2                !
 ! D32   D(32,6,7,35)         -179.6411         estimate D2E/DX2                !
 ! D33   D(2,8,9,10)           119.2356         estimate D2E/DX2                !
 ! D34   D(2,8,9,13)          -116.7818         estimate D2E/DX2                !
 ! D35   D(8,9,10,11)          144.3454         estimate D2E/DX2                !
 ! D36   D(8,9,10,20)           27.7713         estimate D2E/DX2                !
 ! D37   D(8,9,10,21)          -98.6681         estimate D2E/DX2                !
 ! D38   D(13,9,10,11)          20.5488         estimate D2E/DX2                !
 ! D39   D(13,9,10,20)         -96.0253         estimate D2E/DX2                !
 ! D40   D(13,9,10,21)         137.5353         estimate D2E/DX2                !
 ! D41   D(8,9,13,12)         -143.5387         estimate D2E/DX2                !
 ! D42   D(8,9,13,18)          -25.6641         estimate D2E/DX2                !
 ! D43   D(8,9,13,19)          100.5346         estimate D2E/DX2                !
 ! D44   D(10,9,13,12)         -20.2084         estimate D2E/DX2                !
 ! D45   D(10,9,13,18)          97.6663         estimate D2E/DX2                !
 ! D46   D(10,9,13,19)        -136.1351         estimate D2E/DX2                !
 ! D47   D(9,10,11,12)         -12.6058         estimate D2E/DX2                !
 ! D48   D(9,10,11,17)         168.5139         estimate D2E/DX2                !
 ! D49   D(20,10,11,12)        106.4536         estimate D2E/DX2                !
 ! D50   D(20,10,11,17)        -72.4267         estimate D2E/DX2                !
 ! D51   D(21,10,11,12)       -128.2586         estimate D2E/DX2                !
 ! D52   D(21,10,11,17)         52.8611         estimate D2E/DX2                !
 ! D53   D(9,10,20,40)         177.4167         estimate D2E/DX2                !
 ! D54   D(9,10,20,41)          58.6403         estimate D2E/DX2                !
 ! D55   D(9,10,20,42)         -61.1346         estimate D2E/DX2                !
 ! D56   D(11,10,20,40)         66.1604         estimate D2E/DX2                !
 ! D57   D(11,10,20,41)        -52.616          estimate D2E/DX2                !
 ! D58   D(11,10,20,42)       -172.391          estimate D2E/DX2                !
 ! D59   D(21,10,20,40)        -58.0852         estimate D2E/DX2                !
 ! D60   D(21,10,20,41)       -176.8616         estimate D2E/DX2                !
 ! D61   D(21,10,20,42)         63.3635         estimate D2E/DX2                !
 ! D62   D(9,10,21,22)         -60.4438         estimate D2E/DX2                !
 ! D63   D(9,10,21,26)         119.0171         estimate D2E/DX2                !
 ! D64   D(11,10,21,22)         49.7806         estimate D2E/DX2                !
 ! D65   D(11,10,21,26)       -130.7585         estimate D2E/DX2                !
 ! D66   D(20,10,21,22)        173.1315         estimate D2E/DX2                !
 ! D67   D(20,10,21,26)         -7.4076         estimate D2E/DX2                !
 ! D68   D(10,11,12,13)          0.6206         estimate D2E/DX2                !
 ! D69   D(10,11,12,14)       -179.083          estimate D2E/DX2                !
 ! D70   D(17,11,12,13)        179.5831         estimate D2E/DX2                !
 ! D71   D(17,11,12,14)         -0.1206         estimate D2E/DX2                !
 ! D72   D(10,11,17,16)        178.2816         estimate D2E/DX2                !
 ! D73   D(10,11,17,39)         -2.6635         estimate D2E/DX2                !
 ! D74   D(12,11,17,16)         -0.5024         estimate D2E/DX2                !
 ! D75   D(12,11,17,39)        178.5525         estimate D2E/DX2                !
 ! D76   D(11,12,13,9)          11.7296         estimate D2E/DX2                !
 ! D77   D(11,12,13,18)       -107.429          estimate D2E/DX2                !
 ! D78   D(11,12,13,19)        128.3646         estimate D2E/DX2                !
 ! D79   D(14,12,13,9)        -168.5944         estimate D2E/DX2                !
 ! D80   D(14,12,13,18)         72.2469         estimate D2E/DX2                !
 ! D81   D(14,12,13,19)        -51.9595         estimate D2E/DX2                !
 ! D82   D(11,12,14,15)          0.7166         estimate D2E/DX2                !
 ! D83   D(11,12,14,36)       -178.2864         estimate D2E/DX2                !
 ! D84   D(13,12,14,15)       -178.9326         estimate D2E/DX2                !
 ! D85   D(13,12,14,36)          2.0645         estimate D2E/DX2                !
 ! D86   D(9,13,18,53)          69.2843         estimate D2E/DX2                !
 ! D87   D(9,13,18,54)         -50.5457         estimate D2E/DX2                !
 ! D88   D(9,13,18,55)        -169.1527         estimate D2E/DX2                !
 ! D89   D(12,13,18,53)       -178.842          estimate D2E/DX2                !
 ! D90   D(12,13,18,54)         61.3279         estimate D2E/DX2                !
 ! D91   D(12,13,18,55)        -57.279          estimate D2E/DX2                !
 ! D92   D(19,13,18,53)        -56.0767         estimate D2E/DX2                !
 ! D93   D(19,13,18,54)       -175.9067         estimate D2E/DX2                !
 ! D94   D(19,13,18,55)         65.4863         estimate D2E/DX2                !
 ! D95   D(9,13,19,48)          20.7172         estimate D2E/DX2                !
 ! D96   D(9,13,19,52)        -163.8649         estimate D2E/DX2                !
 ! D97   D(12,13,19,48)        -89.5724         estimate D2E/DX2                !
 ! D98   D(12,13,19,52)         85.8455         estimate D2E/DX2                !
 ! D99   D(18,13,19,48)        147.082          estimate D2E/DX2                !
 ! D100  D(18,13,19,52)        -37.5001         estimate D2E/DX2                !
 ! D101  D(12,14,15,16)         -0.6921         estimate D2E/DX2                !
 ! D102  D(12,14,15,37)        179.9977         estimate D2E/DX2                !
 ! D103  D(36,14,15,16)        178.3152         estimate D2E/DX2                !
 ! D104  D(36,14,15,37)         -0.995          estimate D2E/DX2                !
 ! D105  D(14,15,16,17)          0.0744         estimate D2E/DX2                !
 ! D106  D(14,15,16,38)       -179.3755         estimate D2E/DX2                !
 ! D107  D(37,15,16,17)        179.3855         estimate D2E/DX2                !
 ! D108  D(37,15,16,38)         -0.0643         estimate D2E/DX2                !
 ! D109  D(15,16,17,11)          0.522          estimate D2E/DX2                !
 ! D110  D(15,16,17,39)       -178.5301         estimate D2E/DX2                !
 ! D111  D(38,16,17,11)        179.9706         estimate D2E/DX2                !
 ! D112  D(38,16,17,39)          0.9185         estimate D2E/DX2                !
 ! D113  D(13,19,48,49)        176.0497         estimate D2E/DX2                !
 ! D114  D(13,19,48,56)         -5.6362         estimate D2E/DX2                !
 ! D115  D(52,19,48,49)          0.5186         estimate D2E/DX2                !
 ! D116  D(52,19,48,56)        178.8328         estimate D2E/DX2                !
 ! D117  D(13,19,52,51)       -175.6188         estimate D2E/DX2                !
 ! D118  D(13,19,52,60)          4.8505         estimate D2E/DX2                !
 ! D119  D(48,19,52,51)         -0.0918         estimate D2E/DX2                !
 ! D120  D(48,19,52,60)       -179.6224         estimate D2E/DX2                !
 ! D121  D(10,21,22,23)        178.4621         estimate D2E/DX2                !
 ! D122  D(10,21,22,43)         -1.6502         estimate D2E/DX2                !
 ! D123  D(26,21,22,23)         -1.024          estimate D2E/DX2                !
 ! D124  D(26,21,22,43)        178.8637         estimate D2E/DX2                !
 ! D125  D(10,21,26,25)       -178.5416         estimate D2E/DX2                !
 ! D126  D(10,21,26,47)          0.8404         estimate D2E/DX2                !
 ! D127  D(22,21,26,25)          0.9195         estimate D2E/DX2                !
 ! D128  D(22,21,26,47)       -179.6984         estimate D2E/DX2                !
 ! D129  D(21,22,23,24)          0.3648         estimate D2E/DX2                !
 ! D130  D(21,22,23,44)       -179.7205         estimate D2E/DX2                !
 ! D131  D(43,22,23,24)       -179.5223         estimate D2E/DX2                !
 ! D132  D(43,22,23,44)          0.3924         estimate D2E/DX2                !
 ! D133  D(22,23,24,25)          0.4141         estimate D2E/DX2                !
 ! D134  D(22,23,24,45)       -179.8556         estimate D2E/DX2                !
 ! D135  D(44,23,24,25)       -179.5004         estimate D2E/DX2                !
 ! D136  D(44,23,24,45)          0.2299         estimate D2E/DX2                !
 ! D137  D(23,24,25,26)         -0.5159         estimate D2E/DX2                !
 ! D138  D(23,24,25,46)        179.6791         estimate D2E/DX2                !
 ! D139  D(45,24,25,26)        179.7539         estimate D2E/DX2                !
 ! D140  D(45,24,25,46)         -0.0511         estimate D2E/DX2                !
 ! D141  D(24,25,26,21)         -0.1601         estimate D2E/DX2                !
 ! D142  D(24,25,26,47)       -179.5523         estimate D2E/DX2                !
 ! D143  D(46,25,26,21)        179.6456         estimate D2E/DX2                !
 ! D144  D(46,25,26,47)          0.2534         estimate D2E/DX2                !
 ! D145  D(19,48,49,50)         -0.7418         estimate D2E/DX2                !
 ! D146  D(19,48,49,57)        178.5795         estimate D2E/DX2                !
 ! D147  D(56,48,49,50)       -179.0306         estimate D2E/DX2                !
 ! D148  D(56,48,49,57)          0.2907         estimate D2E/DX2                !
 ! D149  D(48,49,50,51)          0.5204         estimate D2E/DX2                !
 ! D150  D(48,49,50,58)       -179.7772         estimate D2E/DX2                !
 ! D151  D(57,49,50,51)       -178.7959         estimate D2E/DX2                !
 ! D152  D(57,49,50,58)          0.9066         estimate D2E/DX2                !
 ! D153  D(49,50,51,52)         -0.0969         estimate D2E/DX2                !
 ! D154  D(49,50,51,59)        179.7898         estimate D2E/DX2                !
 ! D155  D(58,50,51,52)       -179.7995         estimate D2E/DX2                !
 ! D156  D(58,50,51,59)          0.0872         estimate D2E/DX2                !
 ! D157  D(50,51,52,19)         -0.1158         estimate D2E/DX2                !
 ! D158  D(50,51,52,60)        179.4229         estimate D2E/DX2                !
 ! D159  D(59,51,52,19)        179.9969         estimate D2E/DX2                !
 ! D160  D(59,51,52,60)         -0.4644         estimate D2E/DX2                !
 --------------------------------------------------------------------------------
 Trust Radius=3.00D-01 FncErr=1.00D-07 GrdErr=1.00D-06 EigMax=2.50D+02 EigMin=1.00D-04
 Number of steps in this run=    343 maximum allowed number of steps=    360.
 GradGradGradGradGradGradGradGradGradGradGradGradGradGradGradGradGradGrad

 Leave Link  103 at Tue Jan  7 20:07:54 2025, MaxMem=  4026531840 cpu:               0.5 elap:               0.0
 (Enter /usr/local/intel/g16/l202.exe)
 Stoichiometry    C27H29NO3
 Framework group  C1[X(C27H29NO3)]
 Deg. of freedom   174
 Full point group                 C1      NOp   1
 Largest Abelian subgroup         C1      NOp   1
 Largest concise Abelian subgroup C1      NOp   1
                         Standard orientation:                         
 ---------------------------------------------------------------------
 Center     Atomic      Atomic             Coordinates (Angstroms)
 Number     Number       Type             X           Y           Z
 ---------------------------------------------------------------------
      1          6           0        0.533848   -3.151016   -0.252651
      2          6           0       -0.530130   -2.447989   -1.087099
      3          6           0       -1.854746   -2.328092   -0.325667
      4          8           0       -2.106757   -2.906676    0.737594
      5          8           0       -2.765401   -1.572718   -0.997719
      6          6           0       -4.078778   -1.371437   -0.358458
      7          6           0       -4.892472   -0.493276   -1.293860
      8          8           0       -0.095536   -1.181953   -1.664817
      9          7           0        0.350900   -0.211533   -0.686513
     10          6           0        1.804933    0.155043   -0.934594
     11          6           0        1.792761    1.627096   -0.559936
     12          6           0        0.491464    2.111058   -0.432260
     13          6           0       -0.535604    1.013593   -0.692099
     14          6           0        0.258730    3.451159   -0.110281
     15          6           0        1.357771    4.304833    0.067344
     16          6           0        2.670518    3.814518   -0.062451
     17          6           0        2.894757    2.465177   -0.372845
     18          6           0       -1.233051    1.230653   -2.053999
     19          6           0       -1.540232    0.959759    0.471511
     20          6           0        2.216274    0.004875   -2.413501
     21          6           0        2.699937   -0.649460    0.018015
     22          6           0        2.524177   -0.483618    1.406059
     23          6           0        3.288106   -1.213123    2.321120
     24          6           0        4.255626   -2.124327    1.863471
     25          6           0        4.449855   -2.285003    0.486379
     26          6           0        3.677212   -1.550236   -0.428679
     27          1           0        0.785407   -2.565758    0.633684
     28          1           0        1.439377   -3.287300   -0.848693
     29          1           0        0.165864   -4.127237    0.073342
     30          1           0       -0.747732   -3.028580   -1.991455
     31          1           0       -3.915572   -0.900814    0.615116
     32          1           0       -4.537749   -2.352415   -0.200338
     33          1           0       -5.884122   -0.318094   -0.863744
     34          1           0       -5.012818   -0.970221   -2.270777
     35          1           0       -4.399771    0.472740   -1.431377
     36          1           0       -0.752371    3.824592    0.016965
     37          1           0        1.195920    5.348201    0.317563
     38          1           0        3.511963    4.482958    0.087436
     39          1           0        3.904258    2.073515   -0.451443
     40          1           0        3.255873    0.325309   -2.539344
     41          1           0        1.588622    0.636334   -3.046058
     42          1           0        2.107566   -1.026052   -2.756322
     43          1           0        1.783703    0.224498    1.765217
     44          1           0        3.133678   -1.073559    3.386120
     45          1           0        4.849009   -2.694194    2.570964
     46          1           0        5.197524   -2.981687    0.120847
     47          1           0        3.843037   -1.699288   -1.489628
     48          6           0       -1.299364    0.145841    1.590749
     49          6           0       -2.168933    0.154878    2.688875
     50          6           0       -3.293464    0.993379    2.696017
     51          6           0       -3.541822    1.813981    1.585485
     52          6           0       -2.673332    1.794762    0.485125
     53          1           0       -1.980223    0.453281   -2.222718
     54          1           0       -0.501222    1.191553   -2.863966
     55          1           0       -1.706596    2.216729   -2.084489
     56          1           0       -0.440248   -0.513607    1.580190
     57          1           0       -1.972030   -0.500529    3.530377
     58          1           0       -3.965717    1.003852    3.547586
     59          1           0       -4.409356    2.466230    1.573301
     60          1           0       -2.895278    2.432886   -0.363855
 ---------------------------------------------------------------------
 Rotational constants (GHZ):           0.2119437           0.1433229           0.1141722
 Leave Link  202 at Tue Jan  7 20:07:54 2025, MaxMem=  4026531840 cpu:               0.1 elap:               0.0
 (Enter /usr/local/intel/g16/l301.exe)
 Standard basis: def2TZVP (5D, 7F)
 Ernie: Thresh=  0.10000D-02 Tol=  0.10000D-05 Strict=F.
 There are  1290 symmetry adapted cartesian basis functions of A   symmetry.
 There are  1135 symmetry adapted basis functions of A   symmetry.
  1135 basis functions,  1813 primitive gaussians,  1290 cartesian basis functions
   111 alpha electrons      111 beta electrons
       nuclear repulsion energy      3291.3331506144 Hartrees.
 IExCor= 4336 DFT=T Ex+Corr=M062X ExCW=0 ScaHFX=  0.540000
 ScaDFX=  1.000000  1.000000  1.000000  1.000000 ScalE2=  1.000000  1.000000
 IRadAn=      5 IRanWt=     -1 IRanGd=            0 ICorTp=0 IEmpDi=  4
 NAtoms=   60 NActive=   60 NUniq=   60 SFac= 1.00D+00 NAtFMM=   60 NAOKFM=T Big=T
 Integral buffers will be    131072 words long.
 Raffenetti 2 integral format.
 Two-electron integral symmetry is turned on.
 Leave Link  301 at Tue Jan  7 20:07:54 2025, MaxMem=  4026531840 cpu:               1.6 elap:               0.1
 (Enter /usr/local/intel/g16/l302.exe)
 NPDir=0 NMtPBC=     1 NCelOv=     1 NCel=       1 NClECP=     1 NCelD=      1
         NCelK=      1 NCelE2=     1 NClLst=     1 CellRange=     0.0.
 One-electron integrals computed using PRISM.
 One-electron integral symmetry used in STVInt
   1 Symmetry operations used in ECPInt.
 ECPInt:  NShTT=  104653 NPrTT=  316384 LenC2=   90915 LenP2D=  190376.
 LDataN:  DoStor=T MaxTD1= 6 Len=  172
 NBasis=  1135 RedAO= T EigKep=  4.93D-06  NBF=  1135
 NBsUse=  1135 1.00D-06 EigRej= -1.00D+00 NBFU=  1135
 Precomputing XC quadrature grid using
 IXCGrd= 4 IRadAn=           5 IRanWt=          -1 IRanGd=           0 AccXCQ= 0.00D+00.
 Generated NRdTot=       0 NPtTot=           0 NUsed=           0 NTot=          32
 NSgBfM=  1270  1268  1268  1268  1270 MxSgAt=    60 MxSgA2=    60.
 Leave Link  302 at Tue Jan  7 20:07:59 2025, MaxMem=  4026531840 cpu:              99.9 elap:               5.0
 (Enter /usr/local/intel/g16/l303.exe)
 DipDrv:  MaxL=1.
 Leave Link  303 at Tue Jan  7 20:08:00 2025, MaxMem=  4026531840 cpu:               9.3 elap:               0.5
 (Enter /usr/local/intel/g16/l401.exe)
 ExpMin= 9.52D-02 ExpMax= 2.70D+04 ExpMxC= 9.22D+02 IAcc=3 IRadAn=         5 AccDes= 0.00D+00
 Harris functional with IExCor= 1009 and IRadAn=       5 diagonalized for initial guess.
 HarFok:  IExCor= 1009 AccDes= 0.00D+00 IRadAn=         5 IDoV= 1 UseB2=F ITyADJ=14
 ICtDFT=  3500011 ScaDFX=  1.000000  1.000000  1.000000  1.000000
 FoFCou: FMM=F IPFlag=           0 FMFlag=      100000 FMFlg1=        2001
         NFxFlg=           0 DoJE=T BraDBF=F KetDBF=T FulRan=T
         wScrn=  0.000000 ICntrl=       500 IOpCl=  0 I1Cent=   200000004 NGrid=           0
         NMat0=    1 NMatS0=      1 NMatT0=    0 NMatD0=    1 NMtDS0=    0 NMtDT0=    0
 Petite list used in FoFCou.
 Harris En= -1326.06671526610    
 JPrj=0 DoOrth=F DoCkMO=F.
 Leave Link  401 at Tue Jan  7 20:08:12 2025, MaxMem=  4026531840 cpu:             249.2 elap:              12.5
 (Enter /usr/local/intel/g16/l502.exe)
 Integral symmetry usage will be decided dynamically.
 Closed shell SCF:
 Using DIIS extrapolation, IDIIS=  1040.
 NGot=  4026531840 LenX=  4023165102 LenY=  4021499712
 Requested convergence on RMS density matrix=1.00D-08 within 128 cycles.
 Requested convergence on MAX density matrix=1.00D-06.
 Requested convergence on             energy=1.00D-06.
 No special actions if energy rises.
 Fock matrices will be formed incrementally for  20 cycles.
 Integral accuracy reduced to 1.0D-05 until final iterations.

 Cycle   1  Pass 0  IDiag  1:
 FoFJK:  IHMeth= 1 ICntrl=       0 DoSepK=F KAlg= 0 I1Cent=           0 FoldK=F
 IRaf= 910000000 NMat=       1 IRICut=       1 DoRegI=T DoRafI=F ISym2E= 0 IDoP0=0 IntGTp=1.
 FoFCou: FMM=T IPFlag=           0 FMFlag=      100000 FMFlg1=        2001
         NFxFlg=           0 DoJE=F BraDBF=F KetDBF=F FulRan=T
         wScrn=  0.000000 ICntrl=         0 IOpCl=  0 I1Cent=           0 NGrid=           0
         NMat0=    1 NMatS0=      1 NMatT0=    0 NMatD0=    1 NMtDS0=    0 NMtDT0=    0
 Symmetry not used in FoFCou.
 FMM levels:  10  Number of levels for PrismC:   9
 E= -1325.84492039463    
 DIIS: error= 1.70D-02 at cycle   1 NSaved=   1.
 NSaved= 1 IEnMin= 1 EnMin= -1325.84492039463     IErMin= 1 ErrMin= 1.70D-02
 ErrMax= 1.70D-02  0.00D+00 EMaxC= 1.00D-01 BMatC= 9.84D-01 BMatP= 9.84D-01
 IDIUse=3 WtCom= 8.30D-01 WtEn= 1.70D-01
 Coeff-Com:  0.100D+01
 Coeff-En:   0.100D+01
 Coeff:      0.100D+01
 Gap=     0.408 Goal=   None    Shift=    0.000
 GapD=    0.408 DampG=2.000 DampE=0.500 DampFc=1.0000 IDamp=-1.
 RMSDP=1.36D+02 MaxDP=1.22D+04              OVMax= 9.95D-01

 Problem detected with inexpensive integrals.
 Switching to full accuracy and repeating last cycle.
 Cycle   2  Pass 1  IDiag  1:
 E= -1325.84486820455     Delta-E=        0.000052190079 Rises=F Damp=F
 DIIS: error= 1.70D-02 at cycle   1 NSaved=   1.
 NSaved= 1 IEnMin= 1 EnMin= -1325.84486820455     IErMin= 1 ErrMin= 1.70D-02
 ErrMax= 1.70D-02  0.00D+00 EMaxC= 1.00D-01 BMatC= 9.82D-01 BMatP= 9.82D-01
 IDIUse=3 WtCom= 8.30D-01 WtEn= 1.70D-01
 Coeff-Com:  0.100D+01
 Coeff-En:   0.100D+01
 Coeff:      0.100D+01
 Gap=     0.408 Goal=   None    Shift=    0.000
 GapD=    0.408 DampG=2.000 DampE=0.500 DampFc=1.0000 IDamp=-1.
 RMSDP=2.26D-03 MaxDP=2.86D-01 DE= 5.22D-05 OVMax= 1.76D-01

 Cycle   3  Pass 1  IDiag  1:
 RMSU=  2.24D-03    CP:  9.39D-01
 E= -1326.04405315189     Delta-E=       -0.199184947335 Rises=F Damp=F
 DIIS: error= 1.48D-02 at cycle   2 NSaved=   2.
 NSaved= 2 IEnMin= 2 EnMin= -1326.04405315189     IErMin= 2 ErrMin= 1.48D-02
 ErrMax= 1.48D-02  0.00D+00 EMaxC= 1.00D-01 BMatC= 6.87D-01 BMatP= 9.82D-01
 IDIUse=3 WtCom= 8.52D-01 WtEn= 1.48D-01
 Coeff-Com:  0.450D+00 0.550D+00
 Coeff-En:   0.419D+00 0.581D+00
 Coeff:      0.446D+00 0.554D+00
 Gap=     0.332 Goal=   None    Shift=    0.000
 GapD=    0.332 DampG=1.000 DampE=0.500 DampFc=0.5000 IDamp=-1.
 Damping current iteration by 5.00D-01
 RMSDP=1.40D-03 MaxDP=2.04D-01 DE=-1.99D-01 OVMax= 1.10D-01

 Cycle   4  Pass 1  IDiag  1:
 RMSU=  5.18D-04    CP:  9.31D-01  7.92D-01
 E= -1326.44608740695     Delta-E=       -0.402034255061 Rises=F Damp=T
 DIIS: error= 6.44D-03 at cycle   3 NSaved=   3.
 NSaved= 3 IEnMin= 3 EnMin= -1326.44608740695     IErMin= 3 ErrMin= 6.44D-03
 ErrMax= 6.44D-03  0.00D+00 EMaxC= 1.00D-01 BMatC= 1.17D-01 BMatP= 6.87D-01
 IDIUse=3 WtCom= 9.36D-01 WtEn= 6.44D-02
 Coeff-Com:  0.144D+00-0.311D+00 0.117D+01
 Coeff-En:   0.193D-01 0.000D+00 0.981D+00
 Coeff:      0.136D+00-0.291D+00 0.116D+01
 Gap=     0.303 Goal=   None    Shift=    0.000
 RMSDP=6.45D-04 MaxDP=5.95D-02 DE=-4.02D-01 OVMax= 7.01D-02

 Cycle   5  Pass 1  IDiag  1:
 RMSU=  3.38D-04    CP:  9.29D-01  6.45D-01  1.85D+00
 E= -1326.65044597980     Delta-E=       -0.204358572847 Rises=F Damp=F
 DIIS: error= 1.50D-03 at cycle   4 NSaved=   4.
 NSaved= 4 IEnMin= 4 EnMin= -1326.65044597980     IErMin= 4 ErrMin= 1.50D-03
 ErrMax= 1.50D-03  0.00D+00 EMaxC= 1.00D-01 BMatC= 8.75D-03 BMatP= 1.17D-01
 IDIUse=3 WtCom= 9.85D-01 WtEn= 1.50D-02
 Coeff-Com:  0.182D-01-0.221D+00 0.617D+00 0.586D+00
 Coeff-En:   0.000D+00 0.000D+00 0.000D+00 0.100D+01
 Coeff:      0.179D-01-0.218D+00 0.608D+00 0.592D+00
 Gap=     0.294 Goal=   None    Shift=    0.000
 RMSDP=1.30D-04 MaxDP=1.72D-02 DE=-2.04D-01 OVMax= 1.89D-02

 Cycle   6  Pass 1  IDiag  1:
 RMSU=  9.84D-05    CP:  9.24D-01  6.44D-01  1.88D+00  7.59D-01
 E= -1326.65759474214     Delta-E=       -0.007148762344 Rises=F Damp=F
 DIIS: error= 4.92D-04 at cycle   5 NSaved=   5.
 NSaved= 5 IEnMin= 5 EnMin= -1326.65759474214     IErMin= 5 ErrMin= 4.92D-04
 ErrMax= 4.92D-04  0.00D+00 EMaxC= 1.00D-01 BMatC= 3.73D-04 BMatP= 8.75D-03
 IDIUse=3 WtCom= 9.95D-01 WtEn= 4.92D-03
 Coeff-Com:  0.792D-03-0.732D-01 0.193D+00 0.259D+00 0.620D+00
 Coeff-En:   0.000D+00 0.000D+00 0.000D+00 0.000D+00 0.100D+01
 Coeff:      0.788D-03-0.728D-01 0.193D+00 0.257D+00 0.622D+00
 Gap=     0.294 Goal=   None    Shift=    0.000
 RMSDP=3.67D-05 MaxDP=8.18D-03 DE=-7.15D-03 OVMax= 4.61D-03

 Cycle   7  Pass 1  IDiag  1:
 RMSU=  2.82D-05    CP:  9.25D-01  6.47D-01  1.90D+00  8.02D-01  8.52D-01
 E= -1326.65787928248     Delta-E=       -0.000284540341 Rises=F Damp=F
 DIIS: error= 1.85D-04 at cycle   6 NSaved=   6.
 NSaved= 6 IEnMin= 6 EnMin= -1326.65787928248     IErMin= 6 ErrMin= 1.85D-04
 ErrMax= 1.85D-04  0.00D+00 EMaxC= 1.00D-01 BMatC= 4.89D-05 BMatP= 3.73D-04
 IDIUse=3 WtCom= 9.98D-01 WtEn= 1.85D-03
 Coeff-Com: -0.995D-03-0.187D-01 0.466D-01 0.812D-01 0.325D+00 0.567D+00
 Coeff-En:   0.000D+00 0.000D+00 0.000D+00 0.000D+00 0.229D-01 0.977D+00
 Coeff:     -0.993D-03-0.187D-01 0.465D-01 0.811D-01 0.324D+00 0.568D+00
 Gap=     0.294 Goal=   None    Shift=    0.000
 RMSDP=9.71D-06 MaxDP=1.45D-03 DE=-2.85D-04 OVMax= 1.42D-03

 Cycle   8  Pass 1  IDiag  1:
 RMSU=  8.41D-06    CP:  9.25D-01  6.46D-01  1.90D+00  8.04D-01  8.74D-01
                    CP:  8.60D-01
 E= -1326.65792064422     Delta-E=       -0.000041361740 Rises=F Damp=F
 DIIS: error= 4.05D-05 at cycle   7 NSaved=   7.
 NSaved= 7 IEnMin= 7 EnMin= -1326.65792064422     IErMin= 7 ErrMin= 4.05D-05
 ErrMax= 4.05D-05  0.00D+00 EMaxC= 1.00D-01 BMatC= 2.05D-06 BMatP= 4.89D-05
 IDIUse=1 WtCom= 1.00D+00 WtEn= 0.00D+00
 Coeff-Com: -0.370D-03 0.187D-02-0.635D-02-0.463D-02 0.367D-01 0.164D+00
 Coeff-Com:  0.809D+00
 Coeff:     -0.370D-03 0.187D-02-0.635D-02-0.463D-02 0.367D-01 0.164D+00
 Coeff:      0.809D+00
 Gap=     0.294 Goal=   None    Shift=    0.000
 RMSDP=4.42D-06 MaxDP=3.86D-04 DE=-4.14D-05 OVMax= 4.28D-04

 Cycle   9  Pass 1  IDiag  1:
 RMSU=  3.85D-06    CP:  9.25D-01  6.46D-01  1.90D+00  8.08D-01  8.81D-01
                    CP:  9.10D-01  1.07D+00
 E= -1326.65792216395     Delta-E=       -0.000001519726 Rises=F Damp=F
 DIIS: error= 2.51D-05 at cycle   8 NSaved=   8.
 NSaved= 8 IEnMin= 8 EnMin= -1326.65792216395     IErMin= 8 ErrMin= 2.51D-05
 ErrMax= 2.51D-05  0.00D+00 EMaxC= 1.00D-01 BMatC= 8.24D-07 BMatP= 2.05D-06
 IDIUse=1 WtCom= 1.00D+00 WtEn= 0.00D+00
 Coeff-Com: -0.789D-04 0.290D-02-0.839D-02-0.128D-01-0.204D-01 0.115D-01
 Coeff-Com:  0.440D+00 0.587D+00
 Coeff:     -0.789D-04 0.290D-02-0.839D-02-0.128D-01-0.204D-01 0.115D-01
 Coeff:      0.440D+00 0.587D+00
 Gap=     0.294 Goal=   None    Shift=    0.000
 RMSDP=2.07D-06 MaxDP=4.91D-04 DE=-1.52D-06 OVMax= 2.19D-04

 Cycle  10  Pass 1  IDiag  1:
 RMSU=  1.34D-06    CP:  9.25D-01  6.46D-01  1.90D+00  8.05D-01  8.88D-01
                    CP:  9.01D-01  1.13D+00  8.84D-01
 E= -1326.65792301471     Delta-E=       -0.000000850760 Rises=F Damp=F
 DIIS: error= 5.52D-06 at cycle   9 NSaved=   9.
 NSaved= 9 IEnMin= 9 EnMin= -1326.65792301471     IErMin= 9 ErrMin= 5.52D-06
 ErrMax= 5.52D-06  0.00D+00 EMaxC= 1.00D-01 BMatC= 8.33D-08 BMatP= 8.24D-07
 IDIUse=1 WtCom= 1.00D+00 WtEn= 0.00D+00
 Coeff-Com:  0.226D-05 0.859D-03-0.255D-02-0.517D-02-0.125D-01-0.135D-01
 Coeff-Com:  0.107D+00 0.279D+00 0.646D+00
 Coeff:      0.226D-05 0.859D-03-0.255D-02-0.517D-02-0.125D-01-0.135D-01
 Coeff:      0.107D+00 0.279D+00 0.646D+00
 Gap=     0.294 Goal=   None    Shift=    0.000
 RMSDP=4.94D-07 MaxDP=4.90D-05 DE=-8.51D-07 OVMax= 5.44D-05

 Cycle  11  Pass 1  IDiag  1:
 RMSU=  3.84D-07    CP:  9.25D-01  6.46D-01  1.90D+00  8.05D-01  8.88D-01
                    CP:  9.05D-01  1.15D+00  9.38D-01  9.27D-01
 E= -1326.65792308834     Delta-E=       -0.000000073632 Rises=F Damp=F
 DIIS: error= 1.62D-06 at cycle  10 NSaved=  10.
 NSaved=10 IEnMin=10 EnMin= -1326.65792308834     IErMin=10 ErrMin= 1.62D-06
 ErrMax= 1.62D-06  0.00D+00 EMaxC= 1.00D-01 BMatC= 8.74D-09 BMatP= 8.33D-08
 IDIUse=1 WtCom= 1.00D+00 WtEn= 0.00D+00
 Coeff-Com:  0.717D-05-0.762D-04 0.135D-03-0.449D-03-0.205D-02-0.676D-02
 Coeff-Com: -0.173D-01 0.334D-01 0.263D+00 0.730D+00
 Coeff:      0.717D-05-0.762D-04 0.135D-03-0.449D-03-0.205D-02-0.676D-02
 Coeff:     -0.173D-01 0.334D-01 0.263D+00 0.730D+00
 Gap=     0.294 Goal=   None    Shift=    0.000
 RMSDP=1.91D-07 MaxDP=2.14D-05 DE=-7.36D-08 OVMax= 3.26D-05

 Cycle  12  Pass 1  IDiag  1:
 RMSU=  1.63D-07    CP:  9.25D-01  6.46D-01  1.90D+00  8.05D-01  8.88D-01
                    CP:  9.04D-01  1.15D+00  9.48D-01  9.59D-01  1.02D+00
 E= -1326.65792309754     Delta-E=       -0.000000009197 Rises=F Damp=F
 DIIS: error= 7.69D-07 at cycle  11 NSaved=  11.
 NSaved=11 IEnMin=11 EnMin= -1326.65792309754     IErMin=11 ErrMin= 7.69D-07
 ErrMax= 7.69D-07  0.00D+00 EMaxC= 1.00D-01 BMatC= 1.59D-09 BMatP= 8.74D-09
 IDIUse=1 WtCom= 1.00D+00 WtEn= 0.00D+00
 Coeff-Com:  0.347D-05-0.123D-03 0.319D-03 0.286D-03 0.387D-03-0.161D-02
 Coeff-Com: -0.193D-01-0.165D-01 0.362D-01 0.334D+00 0.666D+00
 Coeff:      0.347D-05-0.123D-03 0.319D-03 0.286D-03 0.387D-03-0.161D-02
 Coeff:     -0.193D-01-0.165D-01 0.362D-01 0.334D+00 0.666D+00
 Gap=     0.294 Goal=   None    Shift=    0.000
 RMSDP=9.47D-08 MaxDP=1.73D-05 DE=-9.20D-09 OVMax= 1.20D-05

 Cycle  13  Pass 1  IDiag  1:
 RMSU=  7.80D-08    CP:  9.25D-01  6.46D-01  1.90D+00  8.05D-01  8.88D-01
                    CP:  9.04D-01  1.15D+00  9.57D-01  9.68D-01  1.05D+00
                    CP:  8.49D-01
 E= -1326.65792309906     Delta-E=       -0.000000001522 Rises=F Damp=F
 DIIS: error= 4.07D-07 at cycle  12 NSaved=  12.
 NSaved=12 IEnMin=12 EnMin= -1326.65792309906     IErMin=12 ErrMin= 4.07D-07
 ErrMax= 4.07D-07  0.00D+00 EMaxC= 1.00D-01 BMatC= 2.70D-10 BMatP= 1.59D-09
 IDIUse=1 WtCom= 1.00D+00 WtEn= 0.00D+00
 Coeff-Com:  0.672D-06-0.458D-04 0.125D-03 0.194D-03 0.594D-03 0.548D-03
 Coeff-Com: -0.563D-02-0.130D-01-0.361D-01 0.126D-01 0.306D+00 0.734D+00
 Coeff:      0.672D-06-0.458D-04 0.125D-03 0.194D-03 0.594D-03 0.548D-03
 Coeff:     -0.563D-02-0.130D-01-0.361D-01 0.126D-01 0.306D+00 0.734D+00
 Gap=     0.294 Goal=   None    Shift=    0.000
 RMSDP=3.75D-08 MaxDP=6.69D-06 DE=-1.52D-09 OVMax= 6.76D-06

 Cycle  14  Pass 1  IDiag  1:
 RMSU=  2.51D-08    CP:  9.25D-01  6.46D-01  1.90D+00  8.05D-01  8.88D-01
                    CP:  9.04D-01  1.15D+00  9.57D-01  9.68D-01  1.08D+00
                    CP:  9.74D-01  8.89D-01
 E= -1326.65792309946     Delta-E=       -0.000000000398 Rises=F Damp=F
 DIIS: error= 1.92D-07 at cycle  13 NSaved=  13.
 NSaved=13 IEnMin=13 EnMin= -1326.65792309946     IErMin=13 ErrMin= 1.92D-07
 ErrMax= 1.92D-07  0.00D+00 EMaxC= 1.00D-01 BMatC= 3.99D-11 BMatP= 2.70D-10
 IDIUse=1 WtCom= 1.00D+00 WtEn= 0.00D+00
 Coeff-Com:  0.693D-07-0.550D-05 0.154D-04 0.389D-04 0.220D-03 0.425D-03
 Coeff-Com: -0.502D-04-0.307D-02-0.214D-01-0.396D-01 0.413D-01 0.330D+00
 Coeff-Com:  0.692D+00
 Coeff:      0.693D-07-0.550D-05 0.154D-04 0.389D-04 0.220D-03 0.425D-03
 Coeff:     -0.502D-04-0.307D-02-0.214D-01-0.396D-01 0.413D-01 0.330D+00
 Coeff:      0.692D+00
 Gap=     0.294 Goal=   None    Shift=    0.000
 RMSDP=1.32D-08 MaxDP=1.50D-06 DE=-3.98D-10 OVMax= 2.85D-06

 Cycle  15  Pass 1  IDiag  1:
 RMSU=  1.01D-08    CP:  9.25D-01  6.46D-01  1.90D+00  8.05D-01  8.88D-01
                    CP:  9.04D-01  1.15D+00  9.57D-01  9.65D-01  1.09D+00
                    CP:  9.96D-01  9.72D-01  9.77D-01
 E= -1326.65792309952     Delta-E=       -0.000000000065 Rises=F Damp=F
 DIIS: error= 8.74D-08 at cycle  14 NSaved=  14.
 NSaved=14 IEnMin=14 EnMin= -1326.65792309952     IErMin=14 ErrMin= 8.74D-08
 ErrMax= 8.74D-08  0.00D+00 EMaxC= 1.00D-01 BMatC= 5.23D-12 BMatP= 3.99D-11
 IDIUse=1 WtCom= 1.00D+00 WtEn= 0.00D+00
 Coeff-Com: -0.690D-08 0.233D-05-0.695D-05-0.803D-05 0.292D-04 0.109D-03
 Coeff-Com:  0.599D-03 0.348D-03-0.532D-02-0.194D-01-0.206D-01 0.592D-01
 Coeff-Com:  0.316D+00 0.669D+00
 Coeff:     -0.690D-08 0.233D-05-0.695D-05-0.803D-05 0.292D-04 0.109D-03
 Coeff:      0.599D-03 0.348D-03-0.532D-02-0.194D-01-0.206D-01 0.592D-01
 Coeff:      0.316D+00 0.669D+00
 Gap=     0.294 Goal=   None    Shift=    0.000
 RMSDP=4.99D-09 MaxDP=1.18D-06 DE=-6.55D-11 OVMax= 9.68D-07

 Cycle  16  Pass 1  IDiag  1:
 RMSU=  3.68D-09    CP:  9.25D-01  6.46D-01  1.90D+00  8.05D-01  8.88D-01
                    CP:  9.04D-01  1.15D+00  9.57D-01  9.65D-01  1.09D+00
                    CP:  1.00D+00  9.76D-01  1.05D+00  9.00D-01
 E= -1326.65792309941     Delta-E=        0.000000000114 Rises=F Damp=F
 DIIS: error= 3.54D-08 at cycle  15 NSaved=  15.
 NSaved=15 IEnMin=14 EnMin= -1326.65792309952     IErMin=15 ErrMin= 3.54D-08
 ErrMax= 3.54D-08  0.00D+00 EMaxC= 1.00D-01 BMatC= 8.11D-13 BMatP= 5.23D-12
 IDIUse=1 WtCom= 1.00D+00 WtEn= 0.00D+00
 Coeff-Com: -0.213D-07 0.146D-05-0.448D-05-0.854D-05-0.142D-04-0.744D-05
 Coeff-Com:  0.275D-03 0.657D-03 0.762D-03-0.297D-02-0.168D-01-0.233D-01
 Coeff-Com:  0.450D-01 0.323D+00 0.673D+00
 Coeff:     -0.213D-07 0.146D-05-0.448D-05-0.854D-05-0.142D-04-0.744D-05
 Coeff:      0.275D-03 0.657D-03 0.762D-03-0.297D-02-0.168D-01-0.233D-01
 Coeff:      0.450D-01 0.323D+00 0.673D+00
 Gap=     0.294 Goal=   None    Shift=    0.000
 RMSDP=1.80D-09 MaxDP=2.66D-07 DE= 1.14D-10 OVMax= 4.66D-07

 SCF Done:  E(RM062X) =  -1326.65792310     A.U. after   16 cycles
            NFock= 16  Conv=0.18D-08     -V/T= 2.0059
 KE= 1.318819028375D+03 PE=-9.668431113242D+03 EE= 3.731621011153D+03
 Leave Link  502 at Tue Jan  7 20:53:40 2025, MaxMem=  4026531840 cpu:           54479.1 elap:            2727.7
 (Enter /usr/local/intel/g16/l601.exe)
 Copying SCF densities to generalized density rwf, IOpCl= 0 IROHF=0.

 **********************************************************************

            Population analysis using the SCF Density.

 **********************************************************************

 Orbital symmetries:
       Occupied  (A) (A) (A) (A) (A) (A) (A) (A) (A) (A) (A) (A)
                 (A) (A) (A) (A) (A) (A) (A) (A) (A) (A) (A) (A)
                 (A) (A) (A) (A) (A) (A) (A) (A) (A) (A) (A) (A)
                 (A) (A) (A) (A) (A) (A) (A) (A) (A) (A) (A) (A)
                 (A) (A) (A) (A) (A) (A) (A) (A) (A) (A) (A) (A)
                 (A) (A) (A) (A) (A) (A) (A) (A) (A) (A) (A) (A)
                 (A) (A) (A) (A) (A) (A) (A) (A) (A) (A) (A) (A)
                 (A) (A) (A) (A) (A) (A) (A) (A) (A) (A) (A) (A)
                 (A) (A) (A) (A) (A) (A) (A) (A) (A) (A) (A) (A)
                 (A) (A) (A)
       Virtual   (A) (A) (A) (A) (A) (A) (A) (A) (A) (A) (A) (A)
                 (A) (A) (A) (A) (A) (A) (A) (A) (A) (A) (A) (A)
                 (A) (A) (A) (A) (A) (A) (A) (A) (A) (A) (A) (A)
                 (A) (A) (A) (A) (A) (A) (A) (A) (A) (A) (A) (A)
                 (A) (A) (A) (A) (A) (A) (A) (A) (A) (A) (A) (A)
                 (A) (A) (A) (A) (A) (A) (A) (A) (A) (A) (A) (A)
                 (A) (A) (A) (A) (A) (A) (A) (A) (A) (A) (A) (A)
                 (A) (A) (A) (A) (A) (A) (A) (A) (A) (A) (A) (A)
                 (A) (A) (A) (A) (A) (A) (A) (A) (A) (A) (A) (A)
                 (A) (A) (A) (A) (A) (A) (A) (A) (A) (A) (A) (A)
                 (A) (A) (A) (A) (A) (A) (A) (A) (A) (A) (A) (A)
                 (A) (A) (A) (A) (A) (A) (A) (A) (A) (A) (A) (A)
                 (A) (A) (A) (A) (A) (A) (A) (A) (A) (A) (A) (A)
                 (A) (A) (A) (A) (A) (A) (A) (A) (A) (A) (A) (A)
                 (A) (A) (A) (A) (A) (A) (A) (A) (A) (A) (A) (A)
                 (A) (A) (A) (A) (A) (A) (A) (A) (A) (A) (A) (A)
                 (A) (A) (A) (A) (A) (A) (A) (A) (A) (A) (A) (A)
                 (A) (A) (A) (A) (A) (A) (A) (A) (A) (A) (A) (A)
                 (A) (A) (A) (A) (A) (A) (A) (A) (A) (A) (A) (A)
                 (A) (A) (A) (A) (A) (A) (A) (A) (A) (A) (A) (A)
                 (A) (A) (A) (A) (A) (A) (A) (A) (A) (A) (A) (A)
                 (A) (A) (A) (A) (A) (A) (A) (A) (A) (A) (A) (A)
                 (A) (A) (A) (A) (A) (A) (A) (A) (A) (A) (A) (A)
                 (A) (A) (A) (A) (A) (A) (A) (A) (A) (A) (A) (A)
                 (A) (A) (A) (A) (A) (A) (A) (A) (A) (A) (A) (A)
                 (A) (A) (A) (A) (A) (A) (A) (A) (A) (A) (A) (A)
                 (A) (A) (A) (A) (A) (A) (A) (A) (A) (A) (A) (A)
                 (A) (A) (A) (A) (A) (A) (A) (A) (A) (A) (A) (A)
                 (A) (A) (A) (A) (A) (A) (A) (A) (A) (A) (A) (A)
                 (A) (A) (A) (A) (A) (A) (A) (A) (A) (A) (A) (A)
                 (A) (A) (A) (A) (A) (A) (A) (A) (A) (A) (A) (A)
                 (A) (A) (A) (A) (A) (A) (A) (A) (A) (A) (A) (A)
                 (A) (A) (A) (A) (A) (A) (A) (A) (A) (A) (A) (A)
                 (A) (A) (A) (A) (A) (A) (A) (A) (A) (A) (A) (A)
                 (A) (A) (A) (A) (A) (A) (A) (A) (A) (A) (A) (A)
                 (A) (A) (A) (A) (A) (A) (A) (A) (A) (A) (A) (A)
                 (A) (A) (A) (A) (A) (A) (A) (A) (A) (A) (A) (A)
                 (A) (A) (A) (A) (A) (A) (A) (A) (A) (A) (A) (A)
                 (A) (A) (A) (A) (A) (A) (A) (A) (A) (A) (A) (A)
                 (A) (A) (A) (A) (A) (A) (A) (A) (A) (A) (A) (A)
                 (A) (A) (A) (A) (A) (A) (A) (A) (A) (A) (A) (A)
                 (A) (A) (A) (A) (A) (A) (A) (A) (A) (A) (A) (A)
                 (A) (A) (A) (A) (A) (A) (A) (A) (A) (A) (A) (A)
                 (A) (A) (A) (A) (A) (A) (A) (A) (A) (A) (A) (A)
                 (A) (A) (A) (A) (A) (A) (A) (A) (A) (A) (A) (A)
                 (A) (A) (A) (A) (A) (A) (A) (A) (A) (A) (A) (A)
                 (A) (A) (A) (A) (A) (A) (A) (A) (A) (A) (A) (A)
                 (A) (A) (A) (A) (A) (A) (A) (A) (A) (A) (A) (A)
                 (A) (A) (A) (A) (A) (A) (A) (A) (A) (A) (A) (A)
                 (A) (A) (A) (A) (A) (A) (A) (A) (A) (A) (A) (A)
                 (A) (A) (A) (A) (A) (A) (A) (A) (A) (A) (A) (A)
                 (A) (A) (A) (A) (A) (A) (A) (A) (A) (A) (A) (A)
                 (A) (A) (A) (A) (A) (A) (A) (A) (A) (A) (A) (A)
                 (A) (A) (A) (A) (A) (A) (A) (A) (A) (A) (A) (A)
                 (A) (A) (A) (A) (A) (A) (A) (A) (A) (A) (A) (A)
                 (A) (A) (A) (A) (A) (A) (A) (A) (A) (A) (A) (A)
                 (A) (A) (A) (A) (A) (A) (A) (A) (A) (A) (A) (A)
                 (A) (A) (A) (A) (A) (A) (A) (A) (A) (A) (A) (A)
                 (A) (A) (A) (A) (A) (A) (A) (A) (A) (A) (A) (A)
                 (A) (A) (A) (A) (A) (A) (A) (A) (A) (A) (A) (A)
                 (A) (A) (A) (A) (A) (A) (A) (A) (A) (A) (A) (A)
                 (A) (A) (A) (A) (A) (A) (A) (A) (A) (A) (A) (A)
                 (A) (A) (A) (A) (A) (A) (A) (A) (A) (A) (A) (A)
                 (A) (A) (A) (A) (A) (A) (A) (A) (A) (A) (A) (A)
                 (A) (A) (A) (A) (A) (A) (A) (A) (A) (A) (A) (A)
                 (A) (A) (A) (A) (A) (A) (A) (A) (A) (A) (A) (A)
                 (A) (A) (A) (A) (A) (A) (A) (A) (A) (A) (A) (A)
                 (A) (A) (A) (A) (A) (A) (A) (A) (A) (A) (A) (A)
                 (A) (A) (A) (A) (A) (A) (A) (A) (A) (A) (A) (A)
                 (A) (A) (A) (A) (A) (A) (A) (A) (A) (A) (A) (A)
                 (A) (A) (A) (A) (A) (A) (A) (A) (A) (A) (A) (A)
                 (A) (A) (A) (A) (A) (A) (A) (A) (A) (A) (A) (A)
                 (A) (A) (A) (A) (A) (A) (A) (A) (A) (A) (A) (A)
                 (A) (A) (A) (A) (A) (A) (A) (A) (A) (A) (A) (A)
                 (A) (A) (A) (A) (A) (A) (A) (A) (A) (A) (A) (A)
                 (A) (A) (A) (A) (A) (A) (A) (A) (A) (A) (A) (A)
                 (A) (A) (A) (A) (A) (A) (A) (A) (A) (A) (A) (A)
                 (A) (A) (A) (A) (A) (A) (A) (A) (A) (A) (A) (A)
                 (A) (A) (A) (A) (A) (A) (A) (A) (A) (A) (A) (A)
                 (A) (A) (A) (A) (A) (A) (A) (A) (A) (A) (A) (A)
                 (A) (A) (A) (A) (A) (A) (A) (A) (A) (A) (A) (A)
                 (A) (A) (A) (A) (A) (A) (A) (A) (A) (A) (A) (A)
                 (A) (A) (A) (A) (A) (A) (A) (A) (A) (A) (A) (A)
                 (A) (A) (A) (A) (A) (A) (A) (A) (A) (A) (A) (A)
                 (A) (A) (A) (A) (A) (A) (A) (A) (A) (A) (A) (A)
                 (A) (A) (A) (A)
 The electronic state is 1-A.
 Alpha  occ. eigenvalues --  -19.66609 -19.66275 -19.61458 -14.79618 -10.67184
 Alpha  occ. eigenvalues --  -10.60786 -10.59437 -10.59399 -10.59154 -10.55334
 Alpha  occ. eigenvalues --  -10.55280 -10.55248 -10.55112 -10.54850 -10.54829
 Alpha  occ. eigenvalues --  -10.54761 -10.54698 -10.54617 -10.54606 -10.54539
 Alpha  occ. eigenvalues --  -10.54490 -10.54470 -10.54466 -10.54303 -10.54204
 Alpha  occ. eigenvalues --  -10.54196 -10.53682 -10.53183 -10.53036 -10.52556
 Alpha  occ. eigenvalues --  -10.52240  -1.21405  -1.18195  -1.12182  -1.01873
 Alpha  occ. eigenvalues --   -0.96241  -0.95417  -0.94453  -0.90242  -0.88194
 Alpha  occ. eigenvalues --   -0.86043  -0.84416  -0.84038  -0.83925  -0.83854
 Alpha  occ. eigenvalues --   -0.82649  -0.81603  -0.80472  -0.75584  -0.73494
 Alpha  occ. eigenvalues --   -0.71754  -0.69751  -0.68916  -0.68619  -0.68327
 Alpha  occ. eigenvalues --   -0.67644  -0.64782  -0.64623  -0.62975  -0.60561
 Alpha  occ. eigenvalues --   -0.59075  -0.58682  -0.57471  -0.56450  -0.56114
 Alpha  occ. eigenvalues --   -0.55125  -0.54489  -0.53610  -0.52824  -0.52464
 Alpha  occ. eigenvalues --   -0.51906  -0.51461  -0.50987  -0.50479  -0.49486
 Alpha  occ. eigenvalues --   -0.49212  -0.49044  -0.48689  -0.48081  -0.47747
 Alpha  occ. eigenvalues --   -0.47346  -0.46835  -0.45942  -0.45769  -0.45164
 Alpha  occ. eigenvalues --   -0.44613  -0.44219  -0.43876  -0.43444  -0.42926
 Alpha  occ. eigenvalues --   -0.42737  -0.42416  -0.42148  -0.41998  -0.41266
 Alpha  occ. eigenvalues --   -0.40815  -0.40408  -0.39837  -0.39688  -0.38502
 Alpha  occ. eigenvalues --   -0.38247  -0.37169  -0.36732  -0.33589  -0.31562
 Alpha  occ. eigenvalues --   -0.31142  -0.30720  -0.30503  -0.29397  -0.29218
 Alpha  occ. eigenvalues --   -0.28928
 Alpha virt. eigenvalues --    0.00445   0.01072   0.01252   0.01592   0.01882
 Alpha virt. eigenvalues --    0.03256   0.03896   0.06227   0.07142   0.08343
 Alpha virt. eigenvalues --    0.08622   0.08915   0.09311   0.09661   0.09988
 Alpha virt. eigenvalues --    0.10743   0.11249   0.11454   0.12097   0.12133
 Alpha virt. eigenvalues --    0.12462   0.13042   0.13396   0.13586   0.13986
 Alpha virt. eigenvalues --    0.14100   0.14290   0.14835   0.15000   0.15230
 Alpha virt. eigenvalues --    0.15735   0.15942   0.16236   0.16404   0.16961
 Alpha virt. eigenvalues --    0.17165   0.17733   0.18025   0.18785   0.19124
 Alpha virt. eigenvalues --    0.19215   0.19557   0.19893   0.20491   0.21056
 Alpha virt. eigenvalues --    0.21146   0.21785   0.22234   0.22337   0.22527
 Alpha virt. eigenvalues --    0.22735   0.23199   0.23805   0.24171   0.24212
 Alpha virt. eigenvalues --    0.24612   0.25128   0.25303   0.25520   0.25717
 Alpha virt. eigenvalues --    0.26187   0.26479   0.26735   0.26938   0.27329
 Alpha virt. eigenvalues --    0.27657   0.27885   0.28300   0.28711   0.29246
 Alpha virt. eigenvalues --    0.29413   0.30159   0.30285   0.30881   0.31094
 Alpha virt. eigenvalues --    0.31297   0.31834   0.32230   0.32313   0.32691
 Alpha virt. eigenvalues --    0.33187   0.33336   0.34129   0.34298   0.34625
 Alpha virt. eigenvalues --    0.34905   0.35707   0.35836   0.35913   0.36153
 Alpha virt. eigenvalues --    0.36656   0.36999   0.37549   0.38106   0.38258
 Alpha virt. eigenvalues --    0.38785   0.38961   0.39489   0.39575   0.39778
 Alpha virt. eigenvalues --    0.40278   0.40441   0.40690   0.40905   0.41206
 Alpha virt. eigenvalues --    0.41391   0.41730   0.41955   0.42358   0.42672
 Alpha virt. eigenvalues --    0.42984   0.43030   0.43170   0.43405   0.43692
 Alpha virt. eigenvalues --    0.43950   0.44483   0.44773   0.44888   0.45071
 Alpha virt. eigenvalues --    0.45296   0.45481   0.45798   0.46128   0.46253
 Alpha virt. eigenvalues --    0.46441   0.46965   0.47427   0.47768   0.48134
 Alpha virt. eigenvalues --    0.48197   0.48759   0.48905   0.48930   0.49423
 Alpha virt. eigenvalues --    0.49714   0.49936   0.50321   0.50397   0.50771
 Alpha virt. eigenvalues --    0.51047   0.51466   0.51611   0.51792   0.52492
 Alpha virt. eigenvalues --    0.52832   0.53260   0.53342   0.53564   0.53774
 Alpha virt. eigenvalues --    0.54146   0.54993   0.55285   0.55375   0.55833
 Alpha virt. eigenvalues --    0.56451   0.56791   0.57187   0.57825   0.58075
 Alpha virt. eigenvalues --    0.58236   0.58325   0.58855   0.59253   0.59916
 Alpha virt. eigenvalues --    0.60153   0.60614   0.60803   0.61424   0.61565
 Alpha virt. eigenvalues --    0.62507   0.62558   0.63186   0.63817   0.64256
 Alpha virt. eigenvalues --    0.64580   0.64787   0.65820   0.66414   0.66629
 Alpha virt. eigenvalues --    0.66890   0.67739   0.67918   0.68956   0.69567
 Alpha virt. eigenvalues --    0.69878   0.69950   0.70626   0.71087   0.71735
 Alpha virt. eigenvalues --    0.71866   0.72455   0.72631   0.73435   0.73699
 Alpha virt. eigenvalues --    0.73939   0.74313   0.74817   0.74879   0.75328
 Alpha virt. eigenvalues --    0.75634   0.76100   0.76410   0.76634   0.77464
 Alpha virt. eigenvalues --    0.77765   0.78674   0.79344   0.80338   0.80494
 Alpha virt. eigenvalues --    0.80826   0.80901   0.81285   0.82010   0.82385
 Alpha virt. eigenvalues --    0.83232   0.83725   0.84250   0.84754   0.85124
 Alpha virt. eigenvalues --    0.85481   0.85912   0.86654   0.87006   0.87161
 Alpha virt. eigenvalues --    0.87819   0.88128   0.89005   0.89224   0.89268
 Alpha virt. eigenvalues --    0.89623   0.89849   0.90764   0.91002   0.91373
 Alpha virt. eigenvalues --    0.91918   0.92589   0.93489   0.93873   0.93921
 Alpha virt. eigenvalues --    0.94501   0.95049   0.95392   0.95690   0.96032
 Alpha virt. eigenvalues --    0.96443   0.96478   0.96853   0.97793   0.98101
 Alpha virt. eigenvalues --    0.98890   0.99594   0.99847   1.00640   1.01167
 Alpha virt. eigenvalues --    1.01416   1.01909   1.02719   1.03083   1.03683
 Alpha virt. eigenvalues --    1.04666   1.05217   1.06007   1.06779   1.07043
 Alpha virt. eigenvalues --    1.07473   1.08179   1.08776   1.08834   1.09350
 Alpha virt. eigenvalues --    1.10375   1.10742   1.11372   1.11989   1.12716
 Alpha virt. eigenvalues --    1.12870   1.13310   1.13936   1.14588   1.15120
 Alpha virt. eigenvalues --    1.15676   1.16592   1.17020   1.17387   1.17579
 Alpha virt. eigenvalues --    1.18710   1.19055   1.19532   1.19916   1.20556
 Alpha virt. eigenvalues --    1.20797   1.21452   1.21770   1.22480   1.22816
 Alpha virt. eigenvalues --    1.23573   1.23961   1.24370   1.24523   1.24884
 Alpha virt. eigenvalues --    1.25306   1.25859   1.26646   1.26967   1.27224
 Alpha virt. eigenvalues --    1.27734   1.28687   1.28916   1.29541   1.30022
 Alpha virt. eigenvalues --    1.30734   1.30992   1.31423   1.31915   1.32145
 Alpha virt. eigenvalues --    1.32520   1.32910   1.33987   1.34571   1.34724
 Alpha virt. eigenvalues --    1.35111   1.35504   1.36276   1.36871   1.37418
 Alpha virt. eigenvalues --    1.37861   1.38807   1.39048   1.39708   1.40501
 Alpha virt. eigenvalues --    1.41060   1.42000   1.42986   1.43634   1.44612
 Alpha virt. eigenvalues --    1.45469   1.45820   1.46734   1.47871   1.48224
 Alpha virt. eigenvalues --    1.48670   1.49523   1.50011   1.50536   1.51118
 Alpha virt. eigenvalues --    1.51268   1.51813   1.52004   1.52453   1.53085
 Alpha virt. eigenvalues --    1.54100   1.54230   1.54728   1.55446   1.56025
 Alpha virt. eigenvalues --    1.56634   1.56804   1.57323   1.58119   1.58785
 Alpha virt. eigenvalues --    1.58894   1.59468   1.59923   1.60205   1.60680
 Alpha virt. eigenvalues --    1.60895   1.61637   1.61806   1.62512   1.63079
 Alpha virt. eigenvalues --    1.63510   1.63560   1.64215   1.64664   1.64991
 Alpha virt. eigenvalues --    1.65530   1.65629   1.66164   1.66536   1.66873
 Alpha virt. eigenvalues --    1.67604   1.67966   1.68245   1.68729   1.69415
 Alpha virt. eigenvalues --    1.69987   1.70082   1.70401   1.71085   1.71382
 Alpha virt. eigenvalues --    1.71725   1.72661   1.73556   1.73736   1.74431
[...]
 00385,-0.00000288,-0.00000073,0.00000029,-0.00000764,0.00000106,0.0000
 0838,0.00000305,0.00000062,-0.00000181,0.00000414,0.00000111,-0.000002
 15,0.00002012,0.00003282,0.00001894,0.00000053,0.00000150,-0.00000226,
 -0.00000368,0.00000424,-0.00000011,-0.00000140,0.00000177,0.00000004,0
 .00000108,0.00000115,0.00000113,-0.00113391,0.00604795,0.00035776,-0.0
 1081907,-0.00155343,0.02085019,-0.16754832,0.01189283,0.14401428,0.007
 13739,0.00041085,-0.00576505,0.00283102,0.00325791,-0.00000309,0.00000
 770,-0.00000253,-0.00000490,-0.00000149,0.00000051,0.00001484,0.000014
 56,-0.00001801,-0.00001573,-0.00051477,-0.00013207,0.00090698,-0.00045
 148,-0.00184857,-0.00141688,0.17174354,-0.00000192,-0.00000022,0.00001
 647,0.00002581,0.00003598,-0.00000124,0.00013459,-0.00002780,0.0000417
 9,-0.00008814,-0.00000772,0.00000222,-0.00017072,0.00005314,0.00006126
 ,0.00005996,-0.00006281,-0.00014710,-0.00000522,-0.00000673,0.00000411
 ,-0.00004377,-0.00002424,-0.00001614,-0.00000437,0.00004095,-0.0001217
 8,-0.00000889,-0.00002400,0.00002547,-0.00003398,-0.00002589,-0.000008
 61,-0.00007667,0.00004965,0.00009609,-0.00040224,-0.00057323,-0.000297
 73,0.00000222,-0.00002959,-0.00001870,0.00000709,0.00001633,-0.0000062
 6,-0.00001703,0.00000082,-0.00000168,-0.00001373,-0.00000095,-0.000010
 84,-0.00000379,0.00000804,0.00000367,0.00046243,-0.00122279,0.00036175
 ,0.00000207,-0.00000175,0.00000206,0.00000477,0.00000051,-0.00000246,-
 0.00001418,0.00003614,0.00001819,0.00000741,-0.00000779,-0.00001128,-0
 .00000403,-0.00000212,0.00000257,0.00000267,-0.00000489,-0.00000542,-0
 .00000037,-0.00000725,-0.00000188,-0.00000793,0.00001623,-0.00000258,-
 0.00000465,-0.00000024,-0.00000272,0.00000167,-0.00000790,-0.00000423,
 -0.00000493,-0.00000540,-0.00000332,0.00011467,0.00010013,0.00006381,-
 0.00000783,-0.00001571,-0.00001408,-0.00001203,0.00001479,-0.00001715,
 0.00000491,0.00000280,0.00001171,-0.00001706,-0.00001561,-0.00000632,0
 .00000562,0.00001539,0.00001728,-0.00000236,-0.00000525,0.00000413,-0.
 00000182,-0.00000014,0.00000355,-0.00000325,-0.00000345,-0.00000032,-0
 .00000065,-0.00000032,-0.00000273,0.00000085,0.00000229,-0.00000333,0.
 00000203,-0.00000050,-0.00000125,-0.00001012,-0.00001575,-0.00000838,0
 .00000002,0.00000422,-0.00000069,0.00000345,-0.00000100,0.00000004,0.0
 0000221,0.00000055,-0.00000059,0.00000306,-0.00000122,-0.00000193,0.00
 578071,0.00187599,0.00248541,0.01143021,0.00393428,-0.01548362,0.01200
 049,-0.04819831,0.00252907,-0.01257474,0.00448284,0.01370092,0.0033573
 0,0.00217895,0.00497296,0.00000770,-0.00002075,-0.00001931,-0.00003816
 ,0.00002969,-0.00000871,-0.00000125,0.00004750,-0.00004535,0.00054032,
 0.00014071,-0.00068674,-0.00226501,-0.00174170,-0.00125470,-0.01594352
 ,0.04065481,-0.00000626,-0.00000678,0.00001264,0.00002941,0.00005914,-
 0.00002066,0.00008422,-0.00002679,0.00003747,-0.00006243,-0.00002255,-
 0.00001078,-0.00016654,0.00004446,0.00007610,0.00007040,-0.00007417,-0
 .00012235,0.00004290,0.00003612,-0.00002593,-0.00001962,-0.00006321,-0
 .00001101,0.00005827,-0.00001315,-0.00001174,-0.00000767,-0.00002805,0
 .00000573,-0.00001727,-0.00000942,0.00000136,-0.00007799,0.00001499,0.
 00007843,-0.00029690,-0.00036502,-0.00012868,-0.00001773,0.00003291,0.
 00000505,0.00001740,-0.00002116,-0.00001048,0.00000378,0.00000664,0.00
 000269,0.00000025,0.00000093,-0.00001078,0.00003840,0.00009204,-0.0000
 7176,-0.00079998,0.00026588,-0.00003057,0.00000539,0.00000122,-0.00000
 208,0.00000317,0.00000485,-0.00001136,-0.00000465,0.00000974,0.0000083
 6,0.00000322,-0.00000265,-0.00000364,0.00000096,-0.00000138,0.00000121
 ,0.00000035,-0.00000258,-0.00000106,0.00000307,-0.00000474,0.00000419,
 -0.00000157,0.00000392,-0.00000332,-0.00000267,0.00000288,-0.00000178,
 0.00000184,-0.00000584,0.00000122,-0.00000465,-0.00000580,-0.00000136,
 0.00013530,0.00011350,0.00000176,-0.00000036,-0.00003424,-0.00002124,-
 0.00004121,-0.00000367,-0.00002027,-0.00001616,-0.00001469,0.00001548,
 0.00001024,-0.00000984,0.00003333,-0.00001105,-0.00004359,-0.00000605,
 -0.00000005,0.00000281,0.00000017,0.00000554,-0.00000042,0.00000184,0.
 00000136,-0.00000127,-0.00000065,0.00000398,-0.00000070,-0.00000075,-0
 .00000326,-0.00000107,0.00000561,0.00000123,-0.00000335,-0.00000171,-0
 .00000578,-0.00000350,-0.00000296,-0.00000221,0.00000096,-0.00000002,0
 .00000178,-0.00000115,0.00000106,0.00000230,-0.00000134,-0.00000036,-0
 .00000013,0.00000135,-0.00000132,0.00077772,0.00208412,0.00272619,-0.0
 0205015,0.00087674,0.00453771,0.14397621,0.00237345,-0.22594789,0.0173
 1603,-0.00248752,-0.01437878,-0.00063213,0.00533863,-0.00143351,0.0000
 0523,0.00001570,0.00000498,0.00001733,-0.00002731,-0.00000327,0.000012
 12,-0.00007295,0.00001422,-0.00015813,0.00011343,0.00006055,-0.0007051
 2,-0.00164558,-0.00025442,-0.15706249,-0.00503272,0.23562732,0.0000015
 5,0.00000639,-0.00000606,-0.00000438,-0.00005503,0.00001565,-0.0000066
 6,-0.00003983,0.00002151,0.00000593,0.00000802,-0.00001384,0.00003289,
 0.00003820,0.00001957,-0.00007051,-0.00001361,-0.00003468,0.00000843,0
 .00003002,0.00001860,0.00000298,0.00005503,0.00003829,-0.00047340,-0.0
 0000888,0.00008429,0.00005149,0.00009443,0.00006563,-0.00002649,-0.000
 03196,-0.00000378,0.00007276,0.00011116,0.00009301,-0.00001259,0.00053
 759,-0.00058318,-0.00012365,0.00001264,-0.00000860,0.00002008,-0.00001
 019,0.00000231,-0.00002549,-0.00001142,-0.00000074,-0.00000076,-0.0000
 1097,-0.00000890,-0.00007533,0.00001219,-0.00004797,0.00112052,0.00174
 677,0.00501496,-0.00004820,-0.00001879,-0.00000752,-0.00000986,-0.0000
 2296,0.00002778,-0.00000192,-0.00001394,-0.00001581,-0.00000608,0.0000
 0276,0.00000745,-0.00000219,0.00000235,-0.00000458,0.00000015,0.000001
 82,0.00000167,-0.00000684,0.00000633,-0.00001183,0.00000277,-0.0000031
 3,0.00000254,-0.00000211,-0.00000095,0.00000245,-0.00000059,0.00000366
 ,-0.00000230,0.00000228,0.00000901,0.00000017,-0.00000650,0.00002150,0
 .00002269,0.00001371,0.00000353,0.00001160,0.00000524,0.00001159,0.000
 00712,0.00000212,-0.00000484,0.00000523,-0.00001781,0.00006627,0.00004
 463,-0.00000206,0.00004056,0.00002553,-0.00001718,-0.00001846,-0.00000
 007,-0.00000110,-0.00000334,-0.00000254,-0.00000603,-0.00000405,-0.000
 00241,-0.00001303,0.00000218,0.00001758,0.00000725,0.00000137,-0.00000
 332,0.00000435,0.00000211,-0.00000172,-0.00000085,0.00001077,0.0000093
 5,0.00000210,0.00000170,-0.00000188,-0.00000184,0.00000214,-0.00000119
 ,-0.00000200,0.00000298,-0.00000024,0.00000205,-0.00000119,0.00000128,
 0.00017886,-0.00089266,0.00017195,0.00334364,0.00274764,0.00032295,-0.
 00039405,0.00198005,0.00160950,-0.23628160,0.14329423,-0.00409145,-0.0
 1169045,0.01232220,-0.00279338,0.00000389,0.00001449,-0.00002467,0.000
 01872,-0.00000593,0.00005606,0.00000064,-0.00001414,-0.00001097,-0.000
 36873,-0.00035768,-0.00026753,-0.00015036,0.00008198,0.00016885,-0.000
 69955,-0.00168693,-0.00130847,0.24619597,-0.00000950,-0.00000649,0.000
 01805,0.00003383,0.00006740,-0.00002925,0.00017082,-0.00012998,0.00021
 559,-0.00007236,0.00002368,-0.00011995,-0.00033564,0.00012845,-0.00004
 184,0.00023509,-0.00012318,0.00000714,0.00004791,0.00002096,0.00003419
 ,-0.00001618,-0.00007657,-0.00003400,-0.00008903,0.00002196,-0.0000307
 7,-0.00002705,-0.00000291,0.00001033,0.00001662,0.00002291,0.00000610,
 -0.00002653,0.00000111,-0.00003754,-0.00004654,0.00003717,0.00027121,-
 0.00003279,0.00000756,-0.00001556,0.00001415,-0.00000885,0.00000656,-0
 .00000264,0.00001098,0.00000417,-0.00000216,-0.00001668,0.00000078,0.0
 0004697,0.00001891,-0.00007310,0.00221027,0.00495002,0.00187663,-0.000
 00249,-0.00000727,-0.00000186,-0.00000004,-0.00000401,0.00000018,-0.00
 000336,-0.00000292,-0.00000482,-0.00000138,0.00000328,0.00000171,0.000
 00170,0.,-0.00000371,0.00000095,-0.00000321,0.00000181,0.00000104,0.00
 000050,0.00000243,-0.00000621,0.00000437,-0.00000492,-0.00000556,0.000
 00373,-0.00000491,0.00000206,-0.00000595,0.00000112,-0.00000431,-0.000
 00807,-0.00000273,0.00013316,0.00003936,0.00007919,-0.00002147,0.00000
 392,-0.00000607,-0.00014509,-0.00011955,-0.00004244,-0.00005292,0.0000
 9186,0.00001657,0.00012396,0.00001945,-0.00010071,-0.00000299,0.000007
 27,0.00000463,-0.00000407,-0.00000151,0.00000124,0.00000246,0.00000056
 ,-0.00000105,0.00000382,0.00000007,-0.00000055,0.00000053,0.00000036,0
 .00000251,-0.00000078,0.00000120,0.00000470,0.00000310,-0.00000414,-0.
 00000400,-0.00001170,-0.00000103,0.00000326,-0.00000384,0.00000068,-0.
 00000185,0.00000056,-0.00000068,0.00000097,0.00000190,-0.00000110,-0.0
 0000053,0.00000064,0.00000146,-0.00000147,-0.00079999,-0.00038607,0.00
 005151,0.00238949,0.00263946,0.00542432,0.01481316,-0.00623625,-0.0012
 8363,0.14345748,-0.14734111,0.01289573,-0.00053713,0.00323224,0.001138
 48,0.00000724,0.00002144,-0.00002323,0.00000659,-0.00000079,-0.0000087
 2,0.00000405,-0.00002248,-0.00000336,-0.00040527,-0.00057045,-0.000361
 39,0.00073704,-0.00036988,-0.00006344,-0.00208236,-0.00181437,-0.00139
 824,-0.15787998,0.14794507,-0.00001272,-0.00001477,0.00001339,0.000043
 17,0.00008472,-0.00004609,0.00011379,-0.00000958,-0.00000355,-0.000062
 98,0.00002441,0.00004073,-0.00017679,0.00004071,-0.00000574,0.00015431
 ,-0.00005001,0.00002352,-0.00005599,-0.00001622,0.00005925,-0.00002362
 ,-0.00011375,-0.00005919,0.00032417,-0.00002649,-0.00010553,-0.0000052
 8,-0.00007434,-0.00004424,0.00004734,0.00001043,0.00001450,-0.00013120
 ,-0.00004293,-0.00006332,0.00047215,-0.00065877,0.00063840,0.00001951,
 -0.00000349,-0.00002372,0.00001148,0.00001365,0.00001035,-0.00000130,0
 .00002434,0.00000808,-0.00001336,-0.00001985,0.00000371,0.00001281,-0.
 00004644,0.00004421,0.00479330,0.00220323,-0.00224529,0.00002986,0.000
 00198,0.00000792,-0.00000071,0.00001739,-0.00002734,0.00000236,-0.0000
 1653,0.00000321,-0.00000721,-0.00000083,-0.00000217,0.00000599,-0.0000
 0641,0.00000238,-0.00000160,-0.00000332,0.00000407,0.00000259,-0.00000
 117,0.00001254,0.00000485,0.00000473,-0.00000826,-0.00000524,0.0000048
 5,0.00000093,0.00000389,-0.00000887,-0.00000037,-0.00000761,-0.0000146
 0,0.00000331,0.00001644,0.00002415,0.00000285,-0.00002565,0.00001804,-
 0.00000654,-0.00006601,-0.00006693,0.00000700,-0.00000817,0.00006423,-
 0.00000139,0.00011849,0.00002712,-0.00006737,0.00000594,0.00000751,0.0
 0001283,0.00000368,0.00000291,0.00000486,-0.00000061,0.00000224,-0.000
 00077,0.00000542,0.00000252,-0.00000286,0.00000606,0.00000029,-0.00001
 054,-0.00000222,0.00000068,0.00000435,0.00000069,-0.00000386,-0.000004
 04,-0.00000045,0.00001071,-0.00000736,0.00000546,0.00000088,0.00000402
 ,0.00000113,0.00000065,0.00000052,0.00000176,-0.00000097,0.00000133,-0
 .00000062,0.00000373,-0.00000058,0.00022181,0.00012190,-0.00150263,0.0
 0076436,0.00505776,-0.00278740,-0.02146472,0.01497544,0.00429876,-0.00
 408834,0.01306235,-0.05658441,0.02007684,-0.01514088,0.00500156,-0.000
 01028,0.00000597,-0.00002535,-0.00001500,0.00001290,-0.00003210,0.0000
 0220,0.00002461,-0.00001102,-0.00024010,-0.00036276,-0.00009287,-0.001
 05951,0.00080404,0.00007507,-0.00060890,-0.00190203,0.00007739,0.00231
 176,-0.01666229,0.05328184,-0.00003822,-0.00004640,0.00001449,0.000103
 97,0.00017270,-0.00009580,0.00013267,-0.00006116,-0.00017024,-0.000071
 80,0.00004588,0.00014169,-0.00015830,0.00004564,0.00006330,0.00020516,
 -0.00006405,0.00004473,-0.00010551,0.00000422,0.00009907,-0.00003420,-
 0.00020080,0.00003056,0.00029003,-0.00011663,0.00021329,-0.00001204,-0
 .00000877,-0.00000896,-0.00009352,-0.00009722,0.00001311,-0.00041812,0
 .00015896,0.00043672,-0.00036773,-0.00144577,-0.00206914,-0.00019106,0
 .00021418,0.00011616,0.00009239,-0.00017085,-0.00005149,0.00005471,0.0
 0000353,-0.00000221,0.00004550,0.00003110,-0.00003452,-0.00057642,0.00
 088958,0.00050268,0.00087764,0.01331614,-0.02056683,-0.00001356,-0.000
 00230,-0.00001433,-0.00001714,0.00001674,-0.00004478,0.00001709,-0.000
 07217,0.00000209,-0.00001613,0.00000214,0.00000682,0.00001459,-0.00001
 319,0.00000330,-0.00000394,0.00000052,0.00001427,0.00000380,-0.0000006
 6,0.00002523,0.00003172,-0.00001009,-0.00001103,-0.00000941,0.00001744
 ,0.00001080,0.00001010,-0.00001380,0.00000753,-0.00001445,-0.00001581,
 0.00000917,-0.00001899,0.00000699,0.00003251,-0.00004178,0.00001862,-0
 .00001328,-0.00002698,-0.00003978,0.00001162,0.00002886,0.00009789,-0.
 00000350,-0.00002862,-0.00030175,-0.00020760,-0.00046220,-0.00048173,-
 0.00025833,-0.00000426,0.00000869,-0.00000255,0.00003359,-0.00000801,0
 .00000210,0.00000327,-0.00000191,-0.00000928,0.00000666,-0.00000135,0.
 00001282,-0.00000944,-0.00001081,0.00003528,0.00000617,-0.00001524,-0.
 00000817,0.00003047,0.00004430,-0.00000845,0.00000866,0.00000044,0.000
 00891,0.00000153,0.00000184,0.00000212,0.00000339,-0.00000267,0.000002
 47,-0.00000633,0.00001212,0.00000197,-0.00231414,0.00555839,0.00180273
 ,-0.00130652,-0.00001818,0.00047485,0.00001994,0.00277189,0.00481410,0
 .00739373,-0.01210758,0.01671633,-0.06404830,0.04056162,-0.04051952,0.
 00007482,-0.00009686,-0.00005454,0.00009429,-0.00035590,-0.00000434,-0
 .00068528,-0.00003507,0.00204624,-0.00002043,0.00073949,-0.00119510,-0
 .00023998,-0.00047967,-0.00032786,0.00024911,-0.00049297,0.00085325,-0
 .00055020,-0.00183521,-0.00148741,0.06207110,0.00000157,0.00001556,0.0
 0001792,0.00000041,-0.00001776,0.00001595,0.00032071,-0.00027075,0.000
 45096,-0.00008163,0.00008186,-0.00030562,-0.00036285,0.00027623,-0.000
 19184,0.00024560,-0.00013594,0.00026806,-0.00005496,-0.00026196,0.0002
 4086,-0.00008964,-0.00000059,-0.00008087,0.00028877,0.00011191,-0.0002
 6758,0.00000504,-0.00004646,-0.00000975,-0.00005432,-0.00011834,-0.000
 01570,-0.00013969,0.00024717,0.00036710,-0.00199780,-0.00201612,-0.000
 08272,0.00003932,-0.00020961,-0.00006935,0.00000019,0.00003124,-0.0000
 9415,-0.00002651,-0.00002507,-0.00000200,-0.00000247,0.00000031,-0.000
 02065,-0.00007608,-0.00013883,0.00037011,0.00231584,-0.00624652,0.0153
 8541,0.00002212,-0.00001870,0.00003186,0.00001509,-0.00000987,0.000009
 23,-0.00002799,0.00004862,0.00000716,0.00001431,-0.00000200,-0.0000124
 3,-0.00000653,0.00000182,-0.00000294,0.00000705,-0.00000721,-0.0000080
 2,-0.00000550,-0.00000264,-0.00001015,-0.00002002,0.00001570,-0.000002
 76,-0.00000585,-0.00000165,-0.00000817,-0.00000203,-0.00000158,-0.0000
 0524,-0.00000161,-0.00001249,-0.00000667,0.00003768,0.00002851,0.00001
 159,-0.00006997,0.00003414,-0.00007429,0.00006485,0.00008005,-0.000034
 23,0.00007111,0.00019286,-0.00003791,-0.00028120,-0.00017078,-0.000299
 94,-0.00049086,-0.00012395,0.00000110,-0.00001183,-0.00001191,-0.00000
 210,0.00000367,-0.00000481,0.00002040,-0.00001109,-0.00000897,-0.00000
 075,-0.00001290,0.00000690,-0.00002085,0.00001423,0.00002102,-0.000030
 31,0.00000077,-0.00000088,-0.00000448,-0.00002800,-0.00002548,-0.00000
 177,-0.00000798,0.00000243,-0.00000605,0.00000210,-0.00000173,-0.00000
 068,0.00000152,0.00000057,-0.00000144,0.00000849,-0.00000621,-0.000004
 54,0.00593660,0.00212463,0.00117663,-0.00002378,-0.00048028,-0.0008511
 8,0.00253796,0.00506907,0.00150723,0.00072612,0.00385655,-0.00146428,0
 .04046872,-0.14044032,0.13480666,0.00008317,-0.00044157,-0.00025216,-0
 .00042369,0.00027012,-0.00004710,-0.00023030,0.00125994,-0.00006040,-0
 .00002085,-0.00038399,0.00088011,-0.00051067,-0.00064371,-0.00031250,0
 .00013704,0.00013469,-0.00005995,-0.00217478,-0.00206189,-0.00139296,-
 0.04611670,0.14043866,0.00000100,0.00000331,-0.00000940,0.00000395,-0.
 00004747,0.00000733,-0.00000319,-0.00002019,-0.00004712,0.00001224,0.0
 0002084,0.00002611,0.00006022,0.00003954,0.00003821,-0.00008428,0.0000
 2323,-0.00005029,0.00002872,0.00008363,-0.00012023,-0.00005300,0.00001
 222,0.00001578,-0.00026854,-0.00003403,0.00000089,0.00006910,0.0000997
 7,0.00000739,-0.00007501,-0.00011186,-0.00001273,0.00001578,0.00019980
 ,0.00028769,-0.00051421,-0.00079722,-0.00116847,-0.00029936,0.00037558
 ,0.00002891,0.00017338,-0.00016156,-0.00008413,0.00001039,0.00001054,0
 .00001963,0.00003778,-0.00000116,-0.00002486,0.00181543,0.00018876,-0.
 00185012,-0.00014594,0.00045984,0.00264129,-0.00003583,-0.00002073,0.0
 0000581,-0.00003048,-0.00002233,0.00000930,-0.00000886,-0.00001485,-0.
 00000583,-0.00000162,-0.00000026,0.00000265,-0.00000177,-0.00000008,-0
 .00000023,0.00000112,0.00000277,-0.00000012,-0.00000542,0.00000036,-0.
 00000450,0.00000692,-0.00000181,0.00000414,-0.00000192,0.00000153,0.00
 000454,-0.00000093,0.00000299,-0.00000093,-0.00000021,0.00000283,0.000
 00205,0.00000901,-0.00002466,0.00000653,0.00002231,-0.00000937,0.00001
 037,0.00000671,0.00001086,-0.00001011,-0.00002828,-0.00007884,0.000024
 51,-0.00012759,-0.00014833,0.00011739,-0.00017130,-0.00027689,-0.00000
 200,-0.00002262,-0.00001004,-0.00000723,0.00002838,-0.00001292,0.00000
 193,-0.00000476,-0.00000758,-0.00000347,-0.00001624,0.00000603,0.00001
 206,0.00000688,0.00000454,-0.00000235,0.00000493,-0.00000418,-0.000006
 52,0.00000997,0.00001313,0.00000092,0.00000196,0.00000124,-0.00000019,
 -0.00000004,0.00000154,-0.00000055,-0.00000013,0.00000211,0.00000015,0
 .00000142,0.00000026,0.00000103,0.00125772,0.00135113,0.00261649,0.000
 37526,-0.00082536,0.00010253,0.00531179,0.00094357,-0.00111491,-0.0062
 5853,0.01506770,-0.01546767,-0.04084666,0.13593430,-0.23299067,-0.0003
 6366,0.00001177,-0.00004159,0.00019934,-0.00023786,0.00025694,0.002679
 54,-0.00126063,-0.00265207,0.00017196,-0.00005763,0.00003828,-0.000289
 84,-0.00029229,-0.00023920,-0.00031768,0.00072941,-0.00078953,-0.00094
 232,-0.00171316,0.00010914,0.03859700,-0.14941182,0.25030701\\-0.00000
 454,-0.00000612,0.00001278,0.00000190,0.00002237,0.00000623,0.00001431
 ,-0.00003352,-0.00002572,0.00000117,-0.00000111,0.00003152,-0.00001227
 ,0.00002326,-0.00000506,0.00000684,-0.00000668,-0.00000967,-0.00000701
 ,0.00000093,0.00000030,-0.00000553,0.00002479,-0.00000451,0.00001077,-
 0.00000533,0.00001162,-0.00000267,-0.00000380,-0.00000322,-0.00000564,
 -0.00000883,-0.00000208,0.00000064,-0.00000819,-0.00000071,0.00000472,
 -0.00000712,-0.00001803,-0.00000421,0.00000381,0.00000129,-0.00000708,
 0.00000388,0.00000184,0.00000943,0.00000023,-0.00000190,0.00000600,-0.
 00000025,-0.00000068,-0.00000934,-0.00000177,0.00000322,-0.00000106,-0
 .00000464,-0.00000187,-0.00000239,0.00000973,-0.00000228,0.00001005,0.
 00000842,0.00000515,-0.00000774,0.00000058,0.00000672,-0.00000471,0.00
 000086,0.00000694,0.00000568,-0.00000315,0.00000202,0.00000584,-0.0000
 0704,0.00000696,-0.00000213,-0.00000461,-0.00000833,0.00000016,-0.0000
 0140,0.00000040,0.00000168,-0.00000146,-0.00000136,0.00000219,0.000003
 73,-0.00000254,-0.00000051,-0.00000530,-0.00000139,-0.00000284,0.00000
 373,0.00000405,-0.00000616,0.00000046,0.00000220,-0.00000161,0.0000021
 1,-0.00000230,0.00000126,0.00000193,-0.00000142,0.00000206,0.00000385,
 -0.00000100,0.00000002,0.00000095,-0.00000222,0.00000093,0.00000114,-0
 .00000097,0.00000174,0.00000014,0.00000175,0.00000145,-0.00000091,0.00
 000162,-0.00000202,-0.00000103,-0.00000176,-0.00000343,0.00000069,-0.0
 0000394,0.00000039,-0.00000280,-0.00000077,0.00000236,0.00000036,0.000
 00017,-0.00000039,0.00000066,0.00000297,-0.00000160,-0.00000109,0.0000
 0352,0.00000067,-0.00000126,0.00000245,0.00000004,-0.00000365,0.000007
 47,-0.00000061,-0.00000476,-0.00000432,0.00000195,-0.00000349,0.000000
 80,-0.00000345,0.00000264,0.00000715,-0.00000333,0.00000854,-0.0000058
 1,-0.00000068,-0.00000469,-0.00000975,0.00000539,0.00000083,-0.0000010
 7,0.00001022,-0.00000173,0.00000161,-0.00000039,-0.00000006,0.00000209
 ,-0.00000282,-0.00000022,0.00000053,-0.00000150,0.00000019,0.00000015,
 -0.00000295,-0.00000061,-0.00000167,-0.00000144,0.00000154,-0.00000278
 ,0.00000216,0.00000430,-0.00000643\\\@
 The archive entry for this job was punched.


 MOST BUREAUCRACIES FUNCTION LIKE A SEPTIC TANK.
 THE LARGE CHUNKS RISE TO THE TOP.
 Job cpu time:      11 days  9 hours 42 minutes 56.7 seconds.
 Elapsed time:       0 days 13 hours 41 minutes 44.5 seconds.
 File lengths (MBytes):  RWF=   5345 Int=      0 D2E=      0 Chk=    103 Scr=      1
 Normal termination of Gaussian 16 at Wed Jan  8 21:40:09 2025.
