 Entering Gaussian System, Link 0=g16
 Input=gjfs/data_set_12-nBA_dormant-30b.gjf
 Output=gjfs/data_set_12-nBA_dormant-30b.log
 Initial command:
 /usr/local/intel/g16/l1.exe "/scr/Gau-1115343.inp" -scrdir="/scr/"
 Entering Link 1 = /usr/local/intel/g16/l1.exe PID=   1115345.
  
 Copyright (c) 1988-2019, Gaussian, Inc.  All Rights Reserved.
  
 This is part of the Gaussian(R) 16 program.  It is based on
 the Gaussian(R) 09 system (copyright 2009, Gaussian, Inc.),
 the Gaussian(R) 03 system (copyright 2003, Gaussian, Inc.),
 the Gaussian(R) 98 system (copyright 1998, Gaussian, Inc.),
 the Gaussian(R) 94 system (copyright 1995, Gaussian, Inc.),
 the Gaussian 92(TM) system (copyright 1992, Gaussian, Inc.),
 the Gaussian 90(TM) system (copyright 1990, Gaussian, Inc.),
 the Gaussian 88(TM) system (copyright 1988, Gaussian, Inc.),
 the Gaussian 86(TM) system (copyright 1986, Carnegie Mellon
 University), and the Gaussian 82(TM) system (copyright 1983,
 Carnegie Mellon University). Gaussian is a federally registered
 trademark of Gaussian, Inc.
  
 This software contains proprietary and confidential information,
 including trade secrets, belonging to Gaussian, Inc.
  
 This software is provided under written license and may be
 used, copied, transmitted, or stored only in accord with that
 written license.
  
 The following legend is applicable only to US Government
 contracts under FAR:
  
                    RESTRICTED RIGHTS LEGEND
  
 Use, reproduction and disclosure by the US Government is
 subject to restrictions as set forth in subparagraphs (a)
 and (c) of the Commercial Computer Software - Restricted
 Rights clause in FAR 52.227-19.
  
 Gaussian, Inc.
 340 Quinnipiac St., Bldg. 40, Wallingford CT 06492
  
  
 ---------------------------------------------------------------
 Warning -- This program may not be used in any manner that
 competes with the business of Gaussian, Inc. or will provide
 assistance to any competitor of Gaussian, Inc.  The licensee
 of this program is prohibited from giving any competitor of
 Gaussian, Inc. access to this program.  By using this program,
 the user acknowledges that Gaussian, Inc. is engaged in the
 business of creating and licensing software in the field of
 computational chemistry and represents and warrants to the
 licensee that it is not a competitor of Gaussian, Inc. and that
 it will not use this program in any manner prohibited above.
 ---------------------------------------------------------------
  

 Cite this work as:
 Gaussian 16, Revision C.01,
 M. J. Frisch, G. W. Trucks, H. B. Schlegel, G. E. Scuseria, 
 M. A. Robb, J. R. Cheeseman, G. Scalmani, V. Barone, 
 G. A. Petersson, H. Nakatsuji, X. Li, M. Caricato, A. V. Marenich, 
 J. Bloino, B. G. Janesko, R. Gomperts, B. Mennucci, H. P. Hratchian, 
 J. V. Ortiz, A. F. Izmaylov, J. L. Sonnenberg, D. Williams-Young, 
 F. Ding, F. Lipparini, F. Egidi, J. Goings, B. Peng, A. Petrone, 
 T. Henderson, D. Ranasinghe, V. G. Zakrzewski, J. Gao, N. Rega, 
 G. Zheng, W. Liang, M. Hada, M. Ehara, K. Toyota, R. Fukuda, 
 J. Hasegawa, M. Ishida, T. Nakajima, Y. Honda, O. Kitao, H. Nakai, 
 T. Vreven, K. Throssell, J. A. Montgomery, Jr., J. E. Peralta, 
 F. Ogliaro, M. J. Bearpark, J. J. Heyd, E. N. Brothers, K. N. Kudin, 
 V. N. Staroverov, T. A. Keith, R. Kobayashi, J. Normand, 
 K. Raghavachari, A. P. Rendell, J. C. Burant, S. S. Iyengar, 
 J. Tomasi, M. Cossi, J. M. Millam, M. Klene, C. Adamo, R. Cammi, 
 J. W. Ochterski, R. L. Martin, K. Morokuma, O. Farkas, 
 J. B. Foresman, and D. J. Fox, Gaussian, Inc., Wallingford CT, 2019.
 
 ******************************************
 Gaussian 16:  ES64L-G16RevC.01  3-Jul-2019
                 7-Jan-2025 
 ******************************************
 %nprocshared=20
 Will use up to   20 processors via shared memory.
 %mem=30GB
 %chk=outputs/data_set_12-nBA_dormant-30b.chk
 ----------------------------------
 #p M062X/DEF2TZVP opt freq pop=NBO
 ----------------------------------
 1/18=20,19=15,26=3,38=1/1,3;
 2/9=110,12=2,17=6,18=5,40=1/2;
 3/5=44,7=101,11=2,25=1,30=1,71=1,74=-55/1,2,3;
 4//1;
 5/5=2,38=5/2;
 6/7=2,8=2,9=2,10=2,28=1,40=1/1,7;
 7//1,2,3,16;
 1/18=20,19=15,26=3/3(2);
 2/9=110/2;
 99//99;
 2/9=110/2;
 3/5=44,7=101,11=2,25=1,30=1,71=1,74=-55/1,2,3;
 4/5=5,16=3,69=1/1;
 5/5=2,38=5/2;
 7//1,2,3,16;
 1/18=20,19=15,26=3/3(-5);
 2/9=110/2;
 6/7=2,8=2,9=2,10=2,19=2,28=1,40=1/1,7;
 99/9=1/99;
 Leave Link    1 at Tue Jan  7 21:23:29 2025, MaxMem=  4026531840 cpu:               1.0 elap:               0.1
 (Enter /usr/local/intel/g16/l101.exe)
 ---------------------------
 data_set_12-nBA_dormant-30b
 ---------------------------
 Symbolic Z-matrix:
 Charge =  0 Multiplicity = 1
 C                     0.75198  -3.68016   0.6659 
 C                     0.98865  -2.16912   0.59351 
 C                     2.21391  -1.88179  -0.27164 
 O                     2.23162  -1.83067  -1.50499 
 O                     3.32539  -1.74378   0.50687 
 C                     4.59635  -1.43894  -0.17477 
 C                     5.62176  -1.16233   0.91186 
 O                    -0.20233  -1.58986   0.00257 
 N                    -0.39293  -0.22923   0.44328 
 C                    -0.06549   0.78703  -0.61915 
 C                    -0.9762    1.91918  -0.15361 
 C                    -1.92373   1.4616    0.76658 
 C                    -1.79329  -0.03498   0.98169 
 C                    -2.84532   2.34107   1.33892 
 C                    -2.80963   3.69451   0.96724 
 C                    -1.85817   4.15277   0.03752 
 C                    -0.92769   3.26425  -0.5244 
 C                    -2.88164  -0.82378   0.21716 
 C                    -1.782    -0.41299   2.47251 
 C                    -0.43074   0.30645  -2.03789 
 C                     1.40334   1.22327  -0.48682 
 C                     2.1903    1.54784  -1.60347 
 C                     3.49363   2.04429  -1.44296 
 C                     4.03141   2.21752  -0.16003 
 C                     3.25557   1.88199   0.96165 
 C                     1.95509   1.39344   0.79639 
 C                    -3.02228  -2.21074   0.41357 
 C                    -3.99987  -2.94258  -0.26976 
 C                    -4.86562  -2.29988  -1.16799 
 C                    -4.73801  -0.91988  -1.37203 
 C                    -3.75498  -0.19154  -0.68589 
 H                     1.64693  -4.18937   1.03614 
 H                     0.5051   -4.0635   -0.32786 
 H                    -0.08037  -3.89103   1.34246 
 H                     1.15035  -1.7316    1.58145 
 H                     4.43363  -0.57096  -0.81951 
 H                     4.8665   -2.29636  -0.7993 
 H                     5.3051   -0.31036   1.51925 
 H                     6.58906  -0.92649   0.45579 
 H                     5.7454   -2.032     1.56345 
 H                    -3.58356   1.98398   2.05017 
 H                    -3.51836   4.39283   1.40012 
 H                    -1.83823   5.20211  -0.23801 
 H                    -0.17338   3.61708  -1.22095 
 H                    -2.77967  -0.30475   2.91092 
 H                    -1.07958   0.23237   3.00717 
 H                    -1.46256  -1.45127   2.60575 
 H                    -0.37791   1.1393   -2.74693 
 H                    -1.45098  -0.08273  -2.04878 
 H                     0.24535  -0.49184  -2.35407 
 H                     1.80436   1.40167  -2.6052 
 H                     4.08529   2.29099  -2.31878 
 H                     5.03766   2.6049   -0.03486 
 H                     3.66176   2.00676   1.96052 
 H                     1.35232   1.13003   1.65885 
 H                    -2.3534   -2.72976   1.08939 
 H                    -4.08315  -4.01232  -0.10655 
 H                    -5.62421  -2.86582  -1.69887 
 H                    -5.39937  -0.40765  -2.0634 
 H                    -3.67512   0.87576  -0.86148 
 
 ITRead=  0  0  0  0  0  0  0  0  0  0  0  0  0  0  0  0  0  0  0  0
 ITRead=  0  0  0  0  0  0  0  0  0  0  0  0  0  0  0  0  0  0  0  0
 ITRead=  0  0  0  0  0  0  0  0  0  0  0  0  0  0  0  0  0  0  0  0
 MicOpt= -1 -1 -1 -1 -1 -1 -1 -1 -1 -1 -1 -1 -1 -1 -1 -1 -1 -1 -1 -1
 MicOpt= -1 -1 -1 -1 -1 -1 -1 -1 -1 -1 -1 -1 -1 -1 -1 -1 -1 -1 -1 -1
 MicOpt= -1 -1 -1 -1 -1 -1 -1 -1 -1 -1 -1 -1 -1 -1 -1 -1 -1 -1 -1 -1
 NAtoms=     60 NQM=       60 NQMF=       0 NMMI=      0 NMMIF=      0
                NMic=       0 NMicF=      0.
                    Isotopes and Nuclear Properties:
 (Nuclear quadrupole moments (NQMom) in fm**2, nuclear magnetic moments (NMagM)
  in nuclear magnetons)

  Atom         1           2           3           4           5           6           7           8           9          10
 IAtWgt=          12          12          12          16          16          12          12          16          14          12
 AtmWgt=  12.0000000  12.0000000  12.0000000  15.9949146  15.9949146  12.0000000  12.0000000  15.9949146  14.0030740  12.0000000
 NucSpn=           0           0           0           0           0           0           0           0           2           0
 AtZEff=  -0.0000000  -0.0000000  -0.0000000  -0.0000000  -0.0000000  -0.0000000  -0.0000000  -0.0000000  -0.0000000  -0.0000000
 NQMom=    0.0000000   0.0000000   0.0000000   0.0000000   0.0000000   0.0000000   0.0000000   0.0000000   2.0440000   0.0000000
 NMagM=    0.0000000   0.0000000   0.0000000   0.0000000   0.0000000   0.0000000   0.0000000   0.0000000   0.4037610   0.0000000
 AtZNuc=   6.0000000   6.0000000   6.0000000   8.0000000   8.0000000   6.0000000   6.0000000   8.0000000   7.0000000   6.0000000

  Atom        11          12          13          14          15          16          17          18          19          20
 IAtWgt=          12          12          12          12          12          12          12          12          12          12
 AtmWgt=  12.0000000  12.0000000  12.0000000  12.0000000  12.0000000  12.0000000  12.0000000  12.0000000  12.0000000  12.0000000
 NucSpn=           0           0           0           0           0           0           0           0           0           0
 AtZEff=  -0.0000000  -0.0000000  -0.0000000  -0.0000000  -0.0000000  -0.0000000  -0.0000000  -0.0000000  -0.0000000  -0.0000000
 NQMom=    0.0000000   0.0000000   0.0000000   0.0000000   0.0000000   0.0000000   0.0000000   0.0000000   0.0000000   0.0000000
 NMagM=    0.0000000   0.0000000   0.0000000   0.0000000   0.0000000   0.0000000   0.0000000   0.0000000   0.0000000   0.0000000
 AtZNuc=   6.0000000   6.0000000   6.0000000   6.0000000   6.0000000   6.0000000   6.0000000   6.0000000   6.0000000   6.0000000

  Atom        21          22          23          24          25          26          27          28          29          30
 IAtWgt=          12          12          12          12          12          12          12          12          12          12
 AtmWgt=  12.0000000  12.0000000  12.0000000  12.0000000  12.0000000  12.0000000  12.0000000  12.0000000  12.0000000  12.0000000
 NucSpn=           0           0           0           0           0           0           0           0           0           0
 AtZEff=  -0.0000000  -0.0000000  -0.0000000  -0.0000000  -0.0000000  -0.0000000  -0.0000000  -0.0000000  -0.0000000  -0.0000000
 NQMom=    0.0000000   0.0000000   0.0000000   0.0000000   0.0000000   0.0000000   0.0000000   0.0000000   0.0000000   0.0000000
 NMagM=    0.0000000   0.0000000   0.0000000   0.0000000   0.0000000   0.0000000   0.0000000   0.0000000   0.0000000   0.0000000
 AtZNuc=   6.0000000   6.0000000   6.0000000   6.0000000   6.0000000   6.0000000   6.0000000   6.0000000   6.0000000   6.0000000

  Atom        31          32          33          34          35          36          37          38          39          40
 IAtWgt=          12           1           1           1           1           1           1           1           1           1
 AtmWgt=  12.0000000   1.0078250   1.0078250   1.0078250   1.0078250   1.0078250   1.0078250   1.0078250   1.0078250   1.0078250
 NucSpn=           0           1           1           1           1           1           1           1           1           1
 AtZEff=  -0.0000000  -0.0000000  -0.0000000  -0.0000000  -0.0000000  -0.0000000  -0.0000000  -0.0000000  -0.0000000  -0.0000000
 NQMom=    0.0000000   0.0000000   0.0000000   0.0000000   0.0000000   0.0000000   0.0000000   0.0000000   0.0000000   0.0000000
 NMagM=    0.0000000   2.7928460   2.7928460   2.7928460   2.7928460   2.7928460   2.7928460   2.7928460   2.7928460   2.7928460
 AtZNuc=   6.0000000   1.0000000   1.0000000   1.0000000   1.0000000   1.0000000   1.0000000   1.0000000   1.0000000   1.0000000

  Atom        41          42          43          44          45          46          47          48          49          50
 IAtWgt=           1           1           1           1           1           1           1           1           1           1
 AtmWgt=   1.0078250   1.0078250   1.0078250   1.0078250   1.0078250   1.0078250   1.0078250   1.0078250   1.0078250   1.0078250
 NucSpn=           1           1           1           1           1           1           1           1           1           1
 AtZEff=  -0.0000000  -0.0000000  -0.0000000  -0.0000000  -0.0000000  -0.0000000  -0.0000000  -0.0000000  -0.0000000  -0.0000000
 NQMom=    0.0000000   0.0000000   0.0000000   0.0000000   0.0000000   0.0000000   0.0000000   0.0000000   0.0000000   0.0000000
 NMagM=    2.7928460   2.7928460   2.7928460   2.7928460   2.7928460   2.7928460   2.7928460   2.7928460   2.7928460   2.7928460
 AtZNuc=   1.0000000   1.0000000   1.0000000   1.0000000   1.0000000   1.0000000   1.0000000   1.0000000   1.0000000   1.0000000

  Atom        51          52          53          54          55          56          57          58          59          60
 IAtWgt=           1           1           1           1           1           1           1           1           1           1
 AtmWgt=   1.0078250   1.0078250   1.0078250   1.0078250   1.0078250   1.0078250   1.0078250   1.0078250   1.0078250   1.0078250
 NucSpn=           1           1           1           1           1           1           1           1           1           1
 AtZEff=  -0.0000000  -0.0000000  -0.0000000  -0.0000000  -0.0000000  -0.0000000  -0.0000000  -0.0000000  -0.0000000  -0.0000000
 NQMom=    0.0000000   0.0000000   0.0000000   0.0000000   0.0000000   0.0000000   0.0000000   0.0000000   0.0000000   0.0000000
 NMagM=    2.7928460   2.7928460   2.7928460   2.7928460   2.7928460   2.7928460   2.7928460   2.7928460   2.7928460   2.7928460
 AtZNuc=   1.0000000   1.0000000   1.0000000   1.0000000   1.0000000   1.0000000   1.0000000   1.0000000   1.0000000   1.0000000
 Leave Link  101 at Tue Jan  7 21:23:30 2025, MaxMem=  4026531840 cpu:              22.4 elap:               1.1
 (Enter /usr/local/intel/g16/l103.exe)

 GradGradGradGradGradGradGradGradGradGradGradGradGradGradGradGradGradGrad
 Berny optimization.
 Initialization pass.
                           ----------------------------
                           !    Initial Parameters    !
                           ! (Angstroms and Degrees)  !
 --------------------------                            --------------------------
 ! Name  Definition              Value          Derivative Info.                !
 --------------------------------------------------------------------------------
 ! R1    R(1,2)                  1.5312         estimate D2E/DX2                !
 ! R2    R(1,32)                 1.0942         estimate D2E/DX2                !
 ! R3    R(1,33)                 1.0934         estimate D2E/DX2                !
 ! R4    R(1,34)                 1.0932         estimate D2E/DX2                !
 ! R5    R(2,3)                  1.5272         estimate D2E/DX2                !
 ! R6    R(2,8)                  1.4502         estimate D2E/DX2                !
 ! R7    R(2,35)                 1.0925         estimate D2E/DX2                !
 ! R8    R(3,4)                  1.2345         estimate D2E/DX2                !
 ! R9    R(3,5)                  1.364          estimate D2E/DX2                !
 ! R10   R(5,6)                  1.4741         estimate D2E/DX2                !
 ! R11   R(6,7)                  1.5195         estimate D2E/DX2                !
 ! R12   R(6,36)                 1.0934         estimate D2E/DX2                !
 ! R13   R(6,37)                 1.0946         estimate D2E/DX2                !
 ! R14   R(7,38)                 1.0932         estimate D2E/DX2                !
 ! R15   R(7,39)                 1.0951         estimate D2E/DX2                !
 ! R16   R(7,40)                 1.0937         estimate D2E/DX2                !
 ! R17   R(8,9)                  1.4429         estimate D2E/DX2                !
 ! R18   R(9,10)                 1.5062         estimate D2E/DX2                !
 ! R19   R(9,13)                 1.5128         estimate D2E/DX2                !
 ! R20   R(10,11)                1.5257         estimate D2E/DX2                !
 ! R21   R(10,20)                1.5418         estimate D2E/DX2                !
 ! R22   R(10,21)                1.5379         estimate D2E/DX2                !
 ! R23   R(11,12)                1.3978         estimate D2E/DX2                !
 ! R24   R(11,17)                1.3961         estimate D2E/DX2                !
 ! R25   R(12,13)                1.5176         estimate D2E/DX2                !
 ! R26   R(12,14)                1.3966         estimate D2E/DX2                !
 ! R27   R(13,18)                1.5464         estimate D2E/DX2                !
 ! R28   R(13,19)                1.538          estimate D2E/DX2                !
 ! R29   R(14,15)                1.404          estimate D2E/DX2                !
 ! R30   R(14,41)                1.0855         estimate D2E/DX2                !
 ! R31   R(15,16)                1.407          estimate D2E/DX2                !
 ! R32   R(15,42)                1.0851         estimate D2E/DX2                !
 ! R33   R(16,17)                1.4039         estimate D2E/DX2                !
 ! R34   R(16,43)                1.0851         estimate D2E/DX2                !
 ! R35   R(17,44)                1.0857         estimate D2E/DX2                !
 ! R36   R(18,27)                1.4078         estimate D2E/DX2                !
 ! R37   R(18,31)                1.4064         estimate D2E/DX2                !
 ! R38   R(19,45)                1.0951         estimate D2E/DX2                !
 ! R39   R(19,46)                1.0935         estimate D2E/DX2                !
 ! R40   R(19,47)                1.0944         estimate D2E/DX2                !
 ! R41   R(20,48)                1.0951         estimate D2E/DX2                !
 ! R42   R(20,49)                1.092          estimate D2E/DX2                !
 ! R43   R(20,50)                1.0929         estimate D2E/DX2                !
 ! R44   R(21,22)                1.4041         estimate D2E/DX2                !
 ! R45   R(21,26)                1.4071         estimate D2E/DX2                !
 ! R46   R(22,23)                1.4039         estimate D2E/DX2                !
 ! R47   R(22,51)                1.0834         estimate D2E/DX2                !
 ! R48   R(23,24)                1.4018         estimate D2E/DX2                !
 ! R49   R(23,52)                1.0853         estimate D2E/DX2                !
 ! R50   R(24,25)                1.4045         estimate D2E/DX2                !
 ! R51   R(24,53)                1.0855         estimate D2E/DX2                !
 ! R52   R(25,26)                1.399          estimate D2E/DX2                !
 ! R53   R(25,54)                1.0855         estimate D2E/DX2                !
 ! R54   R(26,55)                1.0847         estimate D2E/DX2                !
 ! R55   R(27,28)                1.3994         estimate D2E/DX2                !
 ! R56   R(27,56)                1.0833         estimate D2E/DX2                !
 ! R57   R(28,29)                1.4034         estimate D2E/DX2                !
 ! R58   R(28,57)                1.0853         estimate D2E/DX2                !
 ! R59   R(29,30)                1.4008         estimate D2E/DX2                !
 ! R60   R(29,58)                1.0852         estimate D2E/DX2                !
 ! R61   R(30,31)                1.4027         estimate D2E/DX2                !
 ! R62   R(30,59)                1.0852         estimate D2E/DX2                !
 ! R63   R(31,60)                1.0846         estimate D2E/DX2                !
 ! A1    A(2,1,32)             110.4153         estimate D2E/DX2                !
 ! A2    A(2,1,33)             109.7504         estimate D2E/DX2                !
 ! A3    A(2,1,34)             109.7142         estimate D2E/DX2                !
 ! A4    A(32,1,33)            109.2103         estimate D2E/DX2                !
 ! A5    A(32,1,34)            108.8791         estimate D2E/DX2                !
 ! A6    A(33,1,34)            108.8423         estimate D2E/DX2                !
 ! A7    A(1,2,3)              109.6622         estimate D2E/DX2                !
 ! A8    A(1,2,8)              106.6484         estimate D2E/DX2                !
 ! A9    A(1,2,35)             112.0444         estimate D2E/DX2                !
 ! A10   A(3,2,8)              110.664          estimate D2E/DX2                !
 ! A11   A(3,2,35)             108.5527         estimate D2E/DX2                !
 ! A12   A(8,2,35)             109.2726         estimate D2E/DX2                !
 ! A13   A(2,3,4)              125.8207         estimate D2E/DX2                !
 ! A14   A(2,3,5)              110.4548         estimate D2E/DX2                !
 ! A15   A(4,3,5)              123.6646         estimate D2E/DX2                !
 ! A16   A(3,5,6)              117.3599         estimate D2E/DX2                !
 ! A17   A(5,6,7)              106.7875         estimate D2E/DX2                !
 ! A18   A(5,6,36)             107.9704         estimate D2E/DX2                !
 ! A19   A(5,6,37)             108.3388         estimate D2E/DX2                !
 ! A20   A(7,6,36)             112.1855         estimate D2E/DX2                !
 ! A21   A(7,6,37)             112.5857         estimate D2E/DX2                !
 ! A22   A(36,6,37)            108.7899         estimate D2E/DX2                !
 ! A23   A(6,7,38)             110.1042         estimate D2E/DX2                !
 ! A24   A(6,7,39)             109.7227         estimate D2E/DX2                !
 ! A25   A(6,7,40)             110.9524         estimate D2E/DX2                !
 ! A26   A(38,7,39)            108.6277         estimate D2E/DX2                !
 ! A27   A(38,7,40)            108.7498         estimate D2E/DX2                !
 ! A28   A(39,7,40)            108.633          estimate D2E/DX2                !
 ! A29   A(2,8,9)              111.1419         estimate D2E/DX2                !
 ! A30   A(8,9,10)             113.0843         estimate D2E/DX2                !
 ! A31   A(8,9,13)             110.6135         estimate D2E/DX2                !
 ! A32   A(10,9,13)            111.4462         estimate D2E/DX2                !
 ! A33   A(9,10,11)             98.9556         estimate D2E/DX2                !
 ! A34   A(9,10,20)            112.7831         estimate D2E/DX2                !
 ! A35   A(9,10,21)            109.7738         estimate D2E/DX2                !
 ! A36   A(11,10,20)           111.7558         estimate D2E/DX2                !
 ! A37   A(11,10,21)           109.4721         estimate D2E/DX2                !
 ! A38   A(20,10,21)           113.1937         estimate D2E/DX2                !
 ! A39   A(10,11,12)           111.2581         estimate D2E/DX2                !
 ! A40   A(10,11,17)           127.8164         estimate D2E/DX2                !
 ! A41   A(12,11,17)           120.9162         estimate D2E/DX2                !
 ! A42   A(11,12,13)           110.9695         estimate D2E/DX2                !
 ! A43   A(11,12,14)           120.7276         estimate D2E/DX2                !
 ! A44   A(13,12,14)           128.291          estimate D2E/DX2                !
 ! A45   A(9,13,12)             98.9597         estimate D2E/DX2                !
 ! A46   A(9,13,18)            114.2074         estimate D2E/DX2                !
 ! A47   A(9,13,19)            107.8554         estimate D2E/DX2                !
 ! A48   A(12,13,18)           111.8683         estimate D2E/DX2                !
 ! A49   A(12,13,19)           112.3584         estimate D2E/DX2                !
 ! A50   A(18,13,19)           111.0402         estimate D2E/DX2                !
 ! A51   A(12,14,15)           118.8024         estimate D2E/DX2                !
 ! A52   A(12,14,41)           120.6734         estimate D2E/DX2                !
 ! A53   A(15,14,41)           120.5208         estimate D2E/DX2                !
 ! A54   A(14,15,16)           120.4042         estimate D2E/DX2                !
 ! A55   A(14,15,42)           119.8801         estimate D2E/DX2                !
 ! A56   A(16,15,42)           119.7156         estimate D2E/DX2                !
 ! A57   A(15,16,17)           120.4326         estimate D2E/DX2                !
 ! A58   A(15,16,43)           119.6814         estimate D2E/DX2                !
 ! A59   A(17,16,43)           119.8829         estimate D2E/DX2                !
 ! A60   A(11,17,16)           118.7131         estimate D2E/DX2                !
 ! A61   A(11,17,44)           120.5084         estimate D2E/DX2                !
 ! A62   A(16,17,44)           120.7702         estimate D2E/DX2                !
 ! A63   A(13,18,27)           120.2564         estimate D2E/DX2                !
 ! A64   A(13,18,31)           121.6817         estimate D2E/DX2                !
 ! A65   A(27,18,31)           118.0618         estimate D2E/DX2                !
 ! A66   A(13,19,45)           110.9202         estimate D2E/DX2                !
 ! A67   A(13,19,46)           109.487          estimate D2E/DX2                !
 ! A68   A(13,19,47)           110.6899         estimate D2E/DX2                !
 ! A69   A(45,19,46)           109.3368         estimate D2E/DX2                !
 ! A70   A(45,19,47)           108.1158         estimate D2E/DX2                !
 ! A71   A(46,19,47)           108.2328         estimate D2E/DX2                !
 ! A72   A(10,20,48)           110.3228         estimate D2E/DX2                !
 ! A73   A(10,20,49)           109.9743         estimate D2E/DX2                !
 ! A74   A(10,20,50)           110.3256         estimate D2E/DX2                !
 ! A75   A(48,20,49)           108.0392         estimate D2E/DX2                !
 ! A76   A(48,20,50)           109.7777         estimate D2E/DX2                !
 ! A77   A(49,20,50)           108.3471         estimate D2E/DX2                !
 ! A78   A(10,21,22)           122.1689         estimate D2E/DX2                !
 ! A79   A(10,21,26)           119.1607         estimate D2E/DX2                !
 ! A80   A(22,21,26)           118.5228         estimate D2E/DX2                !
 ! A81   A(21,22,23)           120.7393         estimate D2E/DX2                !
 ! A82   A(21,22,51)           120.2959         estimate D2E/DX2                !
 ! A83   A(23,22,51)           118.9564         estimate D2E/DX2                !
 ! A84   A(22,23,24)           120.2976         estimate D2E/DX2                !
 ! A85   A(22,23,52)           119.6169         estimate D2E/DX2                !
 ! A86   A(24,23,52)           120.0853         estimate D2E/DX2                !
 ! A87   A(23,24,25)           119.3042         estimate D2E/DX2                !
 ! A88   A(23,24,53)           120.3487         estimate D2E/DX2                !
 ! A89   A(25,24,53)           120.347          estimate D2E/DX2                !
 ! A90   A(24,25,26)           120.1699         estimate D2E/DX2                !
 ! A91   A(24,25,54)           120.0481         estimate D2E/DX2                !
 ! A92   A(26,25,54)           119.7809         estimate D2E/DX2                !
 ! A93   A(21,26,25)           120.9612         estimate D2E/DX2                !
 ! A94   A(21,26,55)           118.5437         estimate D2E/DX2                !
 ! A95   A(25,26,55)           120.4935         estimate D2E/DX2                !
 ! A96   A(18,27,28)           121.1236         estimate D2E/DX2                !
 ! A97   A(18,27,56)           119.8258         estimate D2E/DX2                !
 ! A98   A(28,27,56)           119.0401         estimate D2E/DX2                !
 ! A99   A(27,28,29)           120.2658         estimate D2E/DX2                !
 ! A100  A(27,28,57)           119.7127         estimate D2E/DX2                !
 ! A101  A(29,28,57)           120.0206         estimate D2E/DX2                !
 ! A102  A(28,29,30)           119.2221         estimate D2E/DX2                !
 ! A103  A(28,29,58)           120.3669         estimate D2E/DX2                !
 ! A104  A(30,29,58)           120.4109         estimate D2E/DX2                !
 ! A105  A(29,30,31)           120.272          estimate D2E/DX2                !
 ! A106  A(29,30,59)           120.1488         estimate D2E/DX2                !
 ! A107  A(31,30,59)           119.5792         estimate D2E/DX2                !
 ! A108  A(18,31,30)           121.0545         estimate D2E/DX2                !
 ! A109  A(18,31,60)           120.0401         estimate D2E/DX2                !
 ! A110  A(30,31,60)           118.9054         estimate D2E/DX2                !
 ! D1    D(32,1,2,3)            55.936          estimate D2E/DX2                !
 ! D2    D(32,1,2,8)           175.8024         estimate D2E/DX2                !
 ! D3    D(32,1,2,35)          -64.6752         estimate D2E/DX2                !
 ! D4    D(33,1,2,3)           -64.5063         estimate D2E/DX2                !
 ! D5    D(33,1,2,8)            55.3601         estimate D2E/DX2                !
 ! D6    D(33,1,2,35)          174.8825         estimate D2E/DX2                !
 ! D7    D(34,1,2,3)           175.9444         estimate D2E/DX2                !
 ! D8    D(34,1,2,8)           -64.1892         estimate D2E/DX2                !
 ! D9    D(34,1,2,35)           55.3332         estimate D2E/DX2                !
 ! D10   D(1,2,3,4)             81.9745         estimate D2E/DX2                !
 ! D11   D(1,2,3,5)            -95.2825         estimate D2E/DX2                !
 ! D12   D(8,2,3,4)            -35.407          estimate D2E/DX2                !
 ! D13   D(8,2,3,5)            147.3359         estimate D2E/DX2                !
 ! D14   D(35,2,3,4)          -155.3193         estimate D2E/DX2                !
 ! D15   D(35,2,3,5)            27.4237         estimate D2E/DX2                !
 ! D16   D(1,2,8,9)            152.4698         estimate D2E/DX2                !
 ! D17   D(3,2,8,9)            -88.313          estimate D2E/DX2                !
 ! D18   D(35,2,8,9)            31.1668         estimate D2E/DX2                !
 ! D19   D(2,3,5,6)           -178.9814         estimate D2E/DX2                !
 ! D20   D(4,3,5,6)              3.6908         estimate D2E/DX2                !
 ! D21   D(3,5,6,7)            172.9016         estimate D2E/DX2                !
 ! D22   D(3,5,6,36)            52.0715         estimate D2E/DX2                !
 ! D23   D(3,5,6,37)           -65.5901         estimate D2E/DX2                !
 ! D24   D(5,6,7,38)           -60.3476         estimate D2E/DX2                !
 ! D25   D(5,6,7,39)          -179.8566         estimate D2E/DX2                !
 ! D26   D(5,6,7,40)            60.0957         estimate D2E/DX2                !
 ! D27   D(36,6,7,38)           57.7549         estimate D2E/DX2                !
 ! D28   D(36,6,7,39)          -61.7541         estimate D2E/DX2                !
 ! D29   D(36,6,7,40)          178.1981         estimate D2E/DX2                !
 ! D30   D(37,6,7,38)         -179.1263         estimate D2E/DX2                !
 ! D31   D(37,6,7,39)           61.3646         estimate D2E/DX2                !
 ! D32   D(37,6,7,40)          -58.6831         estimate D2E/DX2                !
 ! D33   D(2,8,9,10)           106.0322         estimate D2E/DX2                !
 ! D34   D(2,8,9,13)          -128.1678         estimate D2E/DX2                !
 ! D35   D(8,9,10,11)          153.1498         estimate D2E/DX2                !
 ! D36   D(8,9,10,20)           34.9096         estimate D2E/DX2                !
 ! D37   D(8,9,10,21)          -92.3145         estimate D2E/DX2                !
 ! D38   D(13,9,10,11)          27.7974         estimate D2E/DX2                !
 ! D39   D(13,9,10,20)         -90.4428         estimate D2E/DX2                !
 ! D40   D(13,9,10,21)         142.3332         estimate D2E/DX2                !
 ! D41   D(8,9,13,12)         -155.7819         estimate D2E/DX2                !
 ! D42   D(8,9,13,18)          -36.8146         estimate D2E/DX2                !
 ! D43   D(8,9,13,19)           87.1291         estimate D2E/DX2                !
 ! D44   D(10,9,13,12)         -29.0675         estimate D2E/DX2                !
 ! D45   D(10,9,13,18)          89.8998         estimate D2E/DX2                !
 ! D46   D(10,9,13,19)        -146.1565         estimate D2E/DX2                !
 ! D47   D(9,10,11,12)         -15.0558         estimate D2E/DX2                !
 ! D48   D(9,10,11,17)         163.8337         estimate D2E/DX2                !
 ! D49   D(20,10,11,12)        103.9552         estimate D2E/DX2                !
 ! D50   D(20,10,11,17)        -77.1553         estimate D2E/DX2                !
 ! D51   D(21,10,11,12)       -129.826          estimate D2E/DX2                !
 ! D52   D(21,10,11,17)         49.0635         estimate D2E/DX2                !
 ! D53   D(9,10,20,48)         168.0484         estimate D2E/DX2                !
 ! D54   D(9,10,20,49)          48.9722         estimate D2E/DX2                !
 ! D55   D(9,10,20,50)         -70.4862         estimate D2E/DX2                !
 ! D56   D(11,10,20,48)         57.5973         estimate D2E/DX2                !
 ! D57   D(11,10,20,49)        -61.479          estimate D2E/DX2                !
 ! D58   D(11,10,20,50)        179.0626         estimate D2E/DX2                !
 ! D59   D(21,10,20,48)        -66.5597         estimate D2E/DX2                !
 ! D60   D(21,10,20,49)        174.364          estimate D2E/DX2                !
 ! D61   D(21,10,20,50)         54.9056         estimate D2E/DX2                !
 ! D62   D(9,10,21,22)         145.7734         estimate D2E/DX2                !
 ! D63   D(9,10,21,26)         -38.71           estimate D2E/DX2                !
 ! D64   D(11,10,21,22)       -106.6146         estimate D2E/DX2                !
 ! D65   D(11,10,21,26)         68.9019         estimate D2E/DX2                !
 ! D66   D(20,10,21,22)         18.7796         estimate D2E/DX2                !
 ! D67   D(20,10,21,26)       -165.7039         estimate D2E/DX2                !
 ! D68   D(10,11,12,13)         -2.2375         estimate D2E/DX2                !
 ! D69   D(10,11,12,14)        178.9161         estimate D2E/DX2                !
 ! D70   D(17,11,12,13)        178.7851         estimate D2E/DX2                !
 ! D71   D(17,11,12,14)         -0.0613         estimate D2E/DX2                !
 ! D72   D(10,11,17,16)       -179.283          estimate D2E/DX2                !
 ! D73   D(10,11,17,44)         -0.3149         estimate D2E/DX2                !
 ! D74   D(12,11,17,16)         -0.4894         estimate D2E/DX2                !
 ! D75   D(12,11,17,44)        178.4787         estimate D2E/DX2                !
 ! D76   D(11,12,13,9)          18.3549         estimate D2E/DX2                !
 ! D77   D(11,12,13,18)       -102.3469         estimate D2E/DX2                !
 ! D78   D(11,12,13,19)        131.9635         estimate D2E/DX2                !
 ! D79   D(14,12,13,9)        -162.9085         estimate D2E/DX2                !
 ! D80   D(14,12,13,18)         76.3896         estimate D2E/DX2                !
 ! D81   D(14,12,13,19)        -49.2999         estimate D2E/DX2                !
 ! D82   D(11,12,14,15)          0.4007         estimate D2E/DX2                !
 ! D83   D(11,12,14,41)        179.7324         estimate D2E/DX2                !
 ! D84   D(13,12,14,15)       -178.2269         estimate D2E/DX2                !
 ! D85   D(13,12,14,41)          1.1048         estimate D2E/DX2                !
 ! D86   D(9,13,18,27)          75.9709         estimate D2E/DX2                !
 ! D87   D(9,13,18,31)        -104.0681         estimate D2E/DX2                !
 ! D88   D(12,13,18,27)       -172.6565         estimate D2E/DX2                !
 ! D89   D(12,13,18,31)          7.3045         estimate D2E/DX2                !
 ! D90   D(19,13,18,27)        -46.2462         estimate D2E/DX2                !
 ! D91   D(19,13,18,31)        133.7148         estimate D2E/DX2                !
 ! D92   D(9,13,19,45)        -179.1349         estimate D2E/DX2                !
 ! D93   D(9,13,19,46)          60.1147         estimate D2E/DX2                !
 ! D94   D(9,13,19,47)         -59.1217         estimate D2E/DX2                !
 ! D95   D(12,13,19,45)         72.8408         estimate D2E/DX2                !
 ! D96   D(12,13,19,46)        -47.9096         estimate D2E/DX2                !
 ! D97   D(12,13,19,47)       -167.146          estimate D2E/DX2                !
 ! D98   D(18,13,19,45)        -53.2982         estimate D2E/DX2                !
 ! D99   D(18,13,19,46)       -174.0486         estimate D2E/DX2                !
 ! D100  D(18,13,19,47)         66.7151         estimate D2E/DX2                !
 ! D101  D(12,14,15,16)         -0.1869         estimate D2E/DX2                !
 ! D102  D(12,14,15,42)        179.9215         estimate D2E/DX2                !
 ! D103  D(41,14,15,16)       -179.5197         estimate D2E/DX2                !
 ! D104  D(41,14,15,42)          0.5887         estimate D2E/DX2                !
 ! D105  D(14,15,16,17)         -0.3669         estimate D2E/DX2                !
 ! D106  D(14,15,16,43)       -179.727          estimate D2E/DX2                !
 ! D107  D(42,15,16,17)        179.5249         estimate D2E/DX2                !
 ! D108  D(42,15,16,43)          0.1647         estimate D2E/DX2                !
 ! D109  D(15,16,17,11)          0.6995         estimate D2E/DX2                !
 ! D110  D(15,16,17,44)       -178.2658         estimate D2E/DX2                !
 ! D111  D(43,16,17,11)       -179.9417         estimate D2E/DX2                !
 ! D112  D(43,16,17,44)          1.093          estimate D2E/DX2                !
 ! D113  D(13,18,27,28)       -179.9305         estimate D2E/DX2                !
 ! D114  D(13,18,27,56)         -1.1178         estimate D2E/DX2                !
 ! D115  D(31,18,27,28)          0.1071         estimate D2E/DX2                !
 ! D116  D(31,18,27,56)        178.9198         estimate D2E/DX2                !
 ! D117  D(13,18,31,30)       -179.9724         estimate D2E/DX2                !
 ! D118  D(13,18,31,60)          0.0298         estimate D2E/DX2                !
 ! D119  D(27,18,31,30)         -0.0106         estimate D2E/DX2                !
 ! D120  D(27,18,31,60)        179.9917         estimate D2E/DX2                !
 ! D121  D(10,21,22,23)        174.8882         estimate D2E/DX2                !
 ! D122  D(10,21,22,51)         -6.1793         estimate D2E/DX2                !
 ! D123  D(26,21,22,23)         -0.6558         estimate D2E/DX2                !
 ! D124  D(26,21,22,51)        178.2767         estimate D2E/DX2                !
 ! D125  D(10,21,26,25)       -175.3216         estimate D2E/DX2                !
 ! D126  D(10,21,26,55)          5.1418         estimate D2E/DX2                !
 ! D127  D(22,21,26,25)          0.3593         estimate D2E/DX2                !
 ! D128  D(22,21,26,55)       -179.1773         estimate D2E/DX2                !
 ! D129  D(21,22,23,24)          0.2982         estimate D2E/DX2                !
 ! D130  D(21,22,23,52)       -179.8904         estimate D2E/DX2                !
 ! D131  D(51,22,23,24)       -178.6484         estimate D2E/DX2                !
 ! D132  D(51,22,23,52)          1.163          estimate D2E/DX2                !
 ! D133  D(22,23,24,25)          0.3657         estimate D2E/DX2                !
 ! D134  D(22,23,24,53)       -179.7651         estimate D2E/DX2                !
 ! D135  D(52,23,24,25)       -179.4448         estimate D2E/DX2                !
 ! D136  D(52,23,24,53)          0.4244         estimate D2E/DX2                !
 ! D137  D(23,24,25,26)         -0.6601         estimate D2E/DX2                !
 ! D138  D(23,24,25,54)        179.7043         estimate D2E/DX2                !
 ! D139  D(53,24,25,26)        179.4706         estimate D2E/DX2                !
 ! D140  D(53,24,25,54)         -0.1649         estimate D2E/DX2                !
 ! D141  D(24,25,26,21)          0.2979         estimate D2E/DX2                !
 ! D142  D(24,25,26,55)        179.8255         estimate D2E/DX2                !
 ! D143  D(54,25,26,21)        179.9344         estimate D2E/DX2                !
 ! D144  D(54,25,26,55)         -0.538          estimate D2E/DX2                !
 ! D145  D(18,27,28,29)         -0.1312         estimate D2E/DX2                !
 ! D146  D(18,27,28,57)        179.538          estimate D2E/DX2                !
 ! D147  D(56,27,28,29)       -178.9531         estimate D2E/DX2                !
 ! D148  D(56,27,28,57)          0.7161         estimate D2E/DX2                !
 ! D149  D(27,28,29,30)          0.0559         estimate D2E/DX2                !
 ! D150  D(27,28,29,58)        179.9911         estimate D2E/DX2                !
 ! D151  D(57,28,29,30)       -179.6123         estimate D2E/DX2                !
 ! D152  D(57,28,29,58)          0.3229         estimate D2E/DX2                !
 ! D153  D(28,29,30,31)          0.0395         estimate D2E/DX2                !
 ! D154  D(28,29,30,59)        179.9841         estimate D2E/DX2                !
 ! D155  D(58,29,30,31)       -179.8957         estimate D2E/DX2                !
 ! D156  D(58,29,30,59)          0.0489         estimate D2E/DX2                !
 ! D157  D(29,30,31,18)         -0.0623         estimate D2E/DX2                !
 ! D158  D(29,30,31,60)        179.9354         estimate D2E/DX2                !
 ! D159  D(59,30,31,18)        179.9928         estimate D2E/DX2                !
 ! D160  D(59,30,31,60)         -0.0095         estimate D2E/DX2                !
 --------------------------------------------------------------------------------
 Trust Radius=3.00D-01 FncErr=1.00D-07 GrdErr=1.00D-06 EigMax=2.50D+02 EigMin=1.00D-04
 Number of steps in this run=    343 maximum allowed number of steps=    360.
 GradGradGradGradGradGradGradGradGradGradGradGradGradGradGradGradGradGrad

 Leave Link  103 at Tue Jan  7 21:23:31 2025, MaxMem=  4026531840 cpu:               0.4 elap:               0.5
 (Enter /usr/local/intel/g16/l202.exe)
 Stoichiometry    C27H29NO3
 Framework group  C1[X(C27H29NO3)]
 Deg. of freedom   174
 Full point group                 C1      NOp   1
 Largest Abelian subgroup         C1      NOp   1
 Largest concise Abelian subgroup C1      NOp   1
                         Standard orientation:                         
 ---------------------------------------------------------------------
 Center     Atomic      Atomic             Coordinates (Angstroms)
 Number     Number       Type             X           Y           Z
 ---------------------------------------------------------------------
      1          6           0        0.751975   -3.680155    0.665904
      2          6           0        0.988653   -2.169123    0.593506
      3          6           0        2.213911   -1.881786   -0.271640
      4          8           0        2.231618   -1.830669   -1.504993
      5          8           0        3.325387   -1.743775    0.506872
      6          6           0        4.596347   -1.438935   -0.174767
      7          6           0        5.621765   -1.162328    0.911856
      8          8           0       -0.202329   -1.589863    0.002567
      9          7           0       -0.392925   -0.229227    0.443281
     10          6           0       -0.065486    0.787033   -0.619147
     11          6           0       -0.976204    1.919177   -0.153608
     12          6           0       -1.923726    1.461597    0.766580
     13          6           0       -1.793291   -0.034979    0.981687
     14          6           0       -2.845324    2.341069    1.338923
     15          6           0       -2.809626    3.694506    0.967241
     16          6           0       -1.858165    4.152773    0.037517
     17          6           0       -0.927691    3.264248   -0.524401
     18          6           0       -2.881636   -0.823778    0.217160
     19          6           0       -1.782002   -0.412993    2.472507
     20          6           0       -0.430741    0.306450   -2.037887
     21          6           0        1.403340    1.223270   -0.486819
     22          6           0        2.190303    1.547840   -1.603474
     23          6           0        3.493629    2.044293   -1.442957
     24          6           0        4.031414    2.217524   -0.160027
     25          6           0        3.255570    1.881987    0.961653
     26          6           0        1.955093    1.393442    0.796385
     27          6           0       -3.022276   -2.210740    0.413573
     28          6           0       -3.999873   -2.942582   -0.269755
     29          6           0       -4.865622   -2.299880   -1.167987
     30          6           0       -4.738007   -0.919875   -1.372032
     31          6           0       -3.754977   -0.191541   -0.685893
     32          1           0        1.646933   -4.189373    1.036138
     33          1           0        0.505103   -4.063501   -0.327860
     34          1           0       -0.080366   -3.891033    1.342459
     35          1           0        1.150354   -1.731599    1.581450
     36          1           0        4.433634   -0.570959   -0.819510
     37          1           0        4.866498   -2.296357   -0.799304
     38          1           0        5.305097   -0.310356    1.519248
     39          1           0        6.589059   -0.926488    0.455786
     40          1           0        5.745403   -2.032000    1.563449
     41          1           0       -3.583555    1.983982    2.050167
     42          1           0       -3.518363    4.392834    1.400119
     43          1           0       -1.838233    5.202107   -0.238005
     44          1           0       -0.173381    3.617081   -1.220950
     45          1           0       -2.779673   -0.304746    2.910923
     46          1           0       -1.079584    0.232372    3.007166
     47          1           0       -1.462560   -1.451270    2.605749
     48          1           0       -0.377907    1.139300   -2.746928
     49          1           0       -1.450980   -0.082727   -2.048782
     50          1           0        0.245350   -0.491844   -2.354075
     51          1           0        1.804360    1.401665   -2.605199
     52          1           0        4.085286    2.290987   -2.318778
     53          1           0        5.037656    2.604897   -0.034859
     54          1           0        3.661755    2.006759    1.960519
     55          1           0        1.352319    1.130032    1.658852
     56          1           0       -2.353402   -2.729756    1.089385
     57          1           0       -4.083155   -4.012322   -0.106550
     58          1           0       -5.624206   -2.865822   -1.698865
     59          1           0       -5.399367   -0.407651   -2.063405
     60          1           0       -3.675123    0.875758   -0.861475
 ---------------------------------------------------------------------
 Rotational constants (GHZ):           0.2294511           0.1301458           0.0979003
 Leave Link  202 at Tue Jan  7 21:23:31 2025, MaxMem=  4026531840 cpu:               0.1 elap:               0.0
 (Enter /usr/local/intel/g16/l301.exe)
 Standard basis: def2TZVP (5D, 7F)
 Ernie: Thresh=  0.10000D-02 Tol=  0.10000D-05 Strict=F.
 There are  1290 symmetry adapted cartesian basis functions of A   symmetry.
 There are  1135 symmetry adapted basis functions of A   symmetry.
  1135 basis functions,  1813 primitive gaussians,  1290 cartesian basis functions
   111 alpha electrons      111 beta electrons
       nuclear repulsion energy      3240.7459533652 Hartrees.
 IExCor= 4336 DFT=T Ex+Corr=M062X ExCW=0 ScaHFX=  0.540000
 ScaDFX=  1.000000  1.000000  1.000000  1.000000 ScalE2=  1.000000  1.000000
 IRadAn=      5 IRanWt=     -1 IRanGd=            0 ICorTp=0 IEmpDi=  4
 NAtoms=   60 NActive=   60 NUniq=   60 SFac= 1.00D+00 NAtFMM=   60 NAOKFM=T Big=T
 Integral buffers will be    131072 words long.
 Raffenetti 2 integral format.
 Two-electron integral symmetry is turned on.
 Leave Link  301 at Tue Jan  7 21:23:31 2025, MaxMem=  4026531840 cpu:               1.2 elap:               0.1
 (Enter /usr/local/intel/g16/l302.exe)
 NPDir=0 NMtPBC=     1 NCelOv=     1 NCel=       1 NClECP=     1 NCelD=      1
         NCelK=      1 NCelE2=     1 NClLst=     1 CellRange=     0.0.
 One-electron integrals computed using PRISM.
 One-electron integral symmetry used in STVInt
   1 Symmetry operations used in ECPInt.
 ECPInt:  NShTT=  104653 NPrTT=  316384 LenC2=   89269 LenP2D=  186325.
 LDataN:  DoStor=T MaxTD1= 6 Len=  172
 NBasis=  1135 RedAO= T EigKep=  4.97D-06  NBF=  1135
 NBsUse=  1135 1.00D-06 EigRej= -1.00D+00 NBFU=  1135
 Precomputing XC quadrature grid using
 IXCGrd= 4 IRadAn=           5 IRanWt=          -1 IRanGd=           0 AccXCQ= 0.00D+00.
 Generated NRdTot=       0 NPtTot=           0 NUsed=           0 NTot=          32
 NSgBfM=  1264  1264  1264  1264  1264 MxSgAt=    60 MxSgA2=    60.
 Leave Link  302 at Tue Jan  7 21:23:36 2025, MaxMem=  4026531840 cpu:              86.2 elap:               4.3
 (Enter /usr/local/intel/g16/l303.exe)
 DipDrv:  MaxL=1.
 Leave Link  303 at Tue Jan  7 21:23:36 2025, MaxMem=  4026531840 cpu:               8.6 elap:               0.5
 (Enter /usr/local/intel/g16/l401.exe)
 ExpMin= 9.52D-02 ExpMax= 2.70D+04 ExpMxC= 9.22D+02 IAcc=3 IRadAn=         5 AccDes= 0.00D+00
 Harris functional with IExCor= 1009 and IRadAn=       5 diagonalized for initial guess.
 HarFok:  IExCor= 1009 AccDes= 0.00D+00 IRadAn=         5 IDoV= 1 UseB2=F ITyADJ=14
 ICtDFT=  3500011 ScaDFX=  1.000000  1.000000  1.000000  1.000000
 FoFCou: FMM=F IPFlag=           0 FMFlag=      100000 FMFlg1=        2001
         NFxFlg=           0 DoJE=T BraDBF=F KetDBF=T FulRan=T
         wScrn=  0.000000 ICntrl=       500 IOpCl=  0 I1Cent=   200000004 NGrid=           0
         NMat0=    1 NMatS0=      1 NMatT0=    0 NMatD0=    1 NMtDS0=    0 NMtDT0=    0
 Petite list used in FoFCou.
 Harris En= -1326.07314436874    
 JPrj=0 DoOrth=F DoCkMO=F.
 Leave Link  401 at Tue Jan  7 21:23:49 2025, MaxMem=  4026531840 cpu:             248.8 elap:              12.5
 (Enter /usr/local/intel/g16/l502.exe)
 Integral symmetry usage will be decided dynamically.
 Closed shell SCF:
 Using DIIS extrapolation, IDIIS=  1040.
 NGot=  4026531840 LenX=  4023165102 LenY=  4021499712
 Requested convergence on RMS density matrix=1.00D-08 within 128 cycles.
 Requested convergence on MAX density matrix=1.00D-06.
 Requested convergence on             energy=1.00D-06.
 No special actions if energy rises.
 Fock matrices will be formed incrementally for  20 cycles.
 Integral accuracy reduced to 1.0D-05 until final iterations.

 Cycle   1  Pass 0  IDiag  1:
 FoFJK:  IHMeth= 1 ICntrl=       0 DoSepK=F KAlg= 0 I1Cent=           0 FoldK=F
 IRaf= 890000000 NMat=       1 IRICut=       1 DoRegI=T DoRafI=F ISym2E= 0 IDoP0=0 IntGTp=1.
 FoFCou: FMM=T IPFlag=           0 FMFlag=      100000 FMFlg1=        2001
         NFxFlg=           0 DoJE=F BraDBF=F KetDBF=F FulRan=T
         wScrn=  0.000000 ICntrl=         0 IOpCl=  0 I1Cent=           0 NGrid=           0
         NMat0=    1 NMatS0=      1 NMatT0=    0 NMatD0=    1 NMtDS0=    0 NMtDT0=    0
 Symmetry not used in FoFCou.
 FMM levels:  10  Number of levels for PrismC:   9
 E= -1325.84450478227    
 DIIS: error= 1.23D-02 at cycle   1 NSaved=   1.
 NSaved= 1 IEnMin= 1 EnMin= -1325.84450478227     IErMin= 1 ErrMin= 1.23D-02
 ErrMax= 1.23D-02  0.00D+00 EMaxC= 1.00D-01 BMatC= 9.82D-01 BMatP= 9.82D-01
 IDIUse=3 WtCom= 8.77D-01 WtEn= 1.23D-01
 Coeff-Com:  0.100D+01
 Coeff-En:   0.100D+01
 Coeff:      0.100D+01
 Gap=     0.404 Goal=   None    Shift=    0.000
 GapD=    0.404 DampG=2.000 DampE=0.500 DampFc=1.0000 IDamp=-1.
 RMSDP=1.15D+02 MaxDP=1.03D+04              OVMax= 9.91D-01

 Problem detected with inexpensive integrals.
 Switching to full accuracy and repeating last cycle.
 Cycle   2  Pass 1  IDiag  1:
 E= -1325.84448348179     Delta-E=        0.000021300478 Rises=F Damp=F
 DIIS: error= 1.23D-02 at cycle   1 NSaved=   1.
 NSaved= 1 IEnMin= 1 EnMin= -1325.84448348179     IErMin= 1 ErrMin= 1.23D-02
 ErrMax= 1.23D-02  0.00D+00 EMaxC= 1.00D-01 BMatC= 9.80D-01 BMatP= 9.80D-01
 IDIUse=3 WtCom= 8.77D-01 WtEn= 1.23D-01
 Coeff-Com:  0.100D+01
 Coeff-En:   0.100D+01
 Coeff:      0.100D+01
 Gap=     0.404 Goal=   None    Shift=    0.000
 GapD=    0.404 DampG=2.000 DampE=0.500 DampFc=1.0000 IDamp=-1.
 RMSDP=2.29D-03 MaxDP=4.18D-01 DE= 2.13D-05 OVMax= 1.87D-01

 Cycle   3  Pass 1  IDiag  1:
 RMSU=  2.27D-03    CP:  9.46D-01
 E= -1326.04800723034     Delta-E=       -0.203523748552 Rises=F Damp=F
 DIIS: error= 1.52D-02 at cycle   2 NSaved=   2.
 NSaved= 2 IEnMin= 2 EnMin= -1326.04800723034     IErMin= 1 ErrMin= 1.23D-02
 ErrMax= 1.52D-02  0.00D+00 EMaxC= 1.00D-01 BMatC= 6.82D-01 BMatP= 9.80D-01
 IDIUse=3 WtCom= 8.48D-01 WtEn= 1.52D-01
 Coeff-Com:  0.450D+00 0.550D+00
 Coeff-En:   0.417D+00 0.583D+00
 Coeff:      0.445D+00 0.555D+00
 Gap=     0.352 Goal=   None    Shift=    0.000
 GapD=    0.352 DampG=1.000 DampE=0.500 DampFc=0.5000 IDamp=-1.
 Damping current iteration by 5.00D-01
 RMSDP=1.42D-03 MaxDP=2.05D-01 DE=-2.04D-01 OVMax= 8.51D-02

 Cycle   4  Pass 1  IDiag  1:
 RMSU=  5.22D-04    CP:  9.37D-01  7.90D-01
 E= -1326.44644530786     Delta-E=       -0.398438077514 Rises=F Damp=T
 DIIS: error= 5.93D-03 at cycle   3 NSaved=   3.
 NSaved= 3 IEnMin= 3 EnMin= -1326.44644530786     IErMin= 3 ErrMin= 5.93D-03
 ErrMax= 5.93D-03  0.00D+00 EMaxC= 1.00D-01 BMatC= 1.16D-01 BMatP= 6.82D-01
 IDIUse=3 WtCom= 9.41D-01 WtEn= 5.93D-02
 Coeff-Com:  0.141D+00-0.318D+00 0.118D+01
 Coeff-En:   0.170D-01 0.000D+00 0.983D+00
 Coeff:      0.134D+00-0.299D+00 0.117D+01
 Gap=     0.302 Goal=   None    Shift=    0.000
 RMSDP=6.29D-04 MaxDP=6.64D-02 DE=-3.98D-01 OVMax= 5.75D-02

 Cycle   5  Pass 1  IDiag  1:
 RMSU=  3.19D-04    CP:  9.31D-01  6.43D-01  1.82D+00
 E= -1326.64959404062     Delta-E=       -0.203148732759 Rises=F Damp=F
 DIIS: error= 1.40D-03 at cycle   4 NSaved=   4.
 NSaved= 4 IEnMin= 4 EnMin= -1326.64959404062     IErMin= 4 ErrMin= 1.40D-03
 ErrMax= 1.40D-03  0.00D+00 EMaxC= 1.00D-01 BMatC= 8.58D-03 BMatP= 1.16D-01
 IDIUse=3 WtCom= 9.86D-01 WtEn= 1.40D-02
 Coeff-Com:  0.172D-01-0.227D+00 0.624D+00 0.585D+00
 Coeff-En:   0.000D+00 0.000D+00 0.000D+00 0.100D+01
 Coeff:      0.170D-01-0.224D+00 0.616D+00 0.591D+00
 Gap=     0.294 Goal=   None    Shift=    0.000
 RMSDP=1.16D-04 MaxDP=9.23D-03 DE=-2.03D-01 OVMax= 1.39D-02

 Cycle   6  Pass 1  IDiag  1:
 RMSU=  8.78D-05    CP:  9.29D-01  6.49D-01  1.84D+00  7.73D-01
 E= -1326.65663963393     Delta-E=       -0.007045593312 Rises=F Damp=F
 DIIS: error= 3.42D-04 at cycle   5 NSaved=   5.
 NSaved= 5 IEnMin= 5 EnMin= -1326.65663963393     IErMin= 5 ErrMin= 3.42D-04
 ErrMax= 3.42D-04  0.00D+00 EMaxC= 1.00D-01 BMatC= 3.63D-04 BMatP= 8.58D-03
 IDIUse=3 WtCom= 9.97D-01 WtEn= 3.42D-03
 Coeff-Com:  0.805D-03-0.773D-01 0.201D+00 0.260D+00 0.615D+00
 Coeff-En:   0.000D+00 0.000D+00 0.000D+00 0.000D+00 0.100D+01
 Coeff:      0.803D-03-0.770D-01 0.201D+00 0.260D+00 0.616D+00
 Gap=     0.292 Goal=   None    Shift=    0.000
 RMSDP=3.12D-05 MaxDP=4.33D-03 DE=-7.05D-03 OVMax= 3.98D-03

 Cycle   7  Pass 1  IDiag  1:
 RMSU=  2.66D-05    CP:  9.30D-01  6.50D-01  1.86D+00  7.95D-01  8.69D-01
 E= -1326.65691681145     Delta-E=       -0.000277177520 Rises=F Damp=F
 DIIS: error= 1.16D-04 at cycle   6 NSaved=   6.
 NSaved= 6 IEnMin= 6 EnMin= -1326.65691681145     IErMin= 6 ErrMin= 1.16D-04
 ErrMax= 1.16D-04  0.00D+00 EMaxC= 1.00D-01 BMatC= 4.36D-05 BMatP= 3.63D-04
 IDIUse=3 WtCom= 9.99D-01 WtEn= 1.16D-03
 EnCoef did     3 forward-backward iterations
 Coeff-Com: -0.989D-03-0.176D-01 0.427D-01 0.742D-01 0.310D+00 0.592D+00
 Coeff-En:   0.000D+00 0.000D+00 0.000D+00 0.000D+00 0.117D-02 0.999D+00
 Coeff:     -0.988D-03-0.175D-01 0.427D-01 0.741D-01 0.309D+00 0.592D+00
 Gap=     0.293 Goal=   None    Shift=    0.000
 RMSDP=1.03D-05 MaxDP=1.22D-03 DE=-2.77D-04 OVMax= 1.02D-03

 Cycle   8  Pass 1  IDiag  1:
 RMSU=  9.00D-06    CP:  9.30D-01  6.50D-01  1.86D+00  8.02D-01  8.93D-01
                    CP:  8.55D-01
 E= -1326.65695408675     Delta-E=       -0.000037275301 Rises=F Damp=F
 DIIS: error= 2.25D-05 at cycle   7 NSaved=   7.
 NSaved= 7 IEnMin= 7 EnMin= -1326.65695408675     IErMin= 7 ErrMin= 2.25D-05
 ErrMax= 2.25D-05  0.00D+00 EMaxC= 1.00D-01 BMatC= 1.55D-06 BMatP= 4.36D-05
 IDIUse=1 WtCom= 1.00D+00 WtEn= 0.00D+00
 Coeff-Com: -0.305D-03 0.334D-02-0.101D-01-0.107D-01 0.119D-01 0.131D+00
 Coeff-Com:  0.874D+00
 Coeff:     -0.305D-03 0.334D-02-0.101D-01-0.107D-01 0.119D-01 0.131D+00
 Coeff:      0.874D+00
 Gap=     0.293 Goal=   None    Shift=    0.000
 RMSDP=4.15D-06 MaxDP=8.99D-04 DE=-3.73D-05 OVMax= 4.49D-04

 Cycle   9  Pass 1  IDiag  1:
 RMSU=  3.27D-06    CP:  9.30D-01  6.50D-01  1.86D+00  8.05D-01  9.01D-01
                    CP:  9.13D-01  1.16D+00
 E= -1326.65695554451     Delta-E=       -0.000001457764 Rises=F Damp=F
 DIIS: error= 1.53D-05 at cycle   8 NSaved=   8.
 NSaved= 8 IEnMin= 8 EnMin= -1326.65695554451     IErMin= 8 ErrMin= 1.53D-05
 ErrMax= 1.53D-05  0.00D+00 EMaxC= 1.00D-01 BMatC= 5.54D-07 BMatP= 1.55D-06
 IDIUse=1 WtCom= 1.00D+00 WtEn= 0.00D+00
 Coeff-Com: -0.528D-04 0.297D-02-0.840D-02-0.129D-01-0.258D-01 0.766D-04
 Coeff-Com:  0.436D+00 0.608D+00
 Coeff:     -0.528D-04 0.297D-02-0.840D-02-0.129D-01-0.258D-01 0.766D-04
 Coeff:      0.436D+00 0.608D+00
 Gap=     0.293 Goal=   None    Shift=    0.000
 RMSDP=1.70D-06 MaxDP=3.44D-04 DE=-1.46D-06 OVMax= 1.76D-04

 Cycle  10  Pass 1  IDiag  1:
 RMSU=  1.26D-06    CP:  9.30D-01  6.50D-01  1.86D+00  8.03D-01  9.07D-01
                    CP:  9.14D-01  1.16D+00  8.56D-01
 E= -1326.65695610832     Delta-E=       -0.000000563808 Rises=F Damp=F
 DIIS: error= 6.04D-06 at cycle   9 NSaved=   9.
 NSaved= 9 IEnMin= 9 EnMin= -1326.65695610832     IErMin= 9 ErrMin= 6.04D-06
 ErrMax= 6.04D-06  0.00D+00 EMaxC= 1.00D-01 BMatC= 7.73D-08 BMatP= 5.54D-07
 IDIUse=1 WtCom= 1.00D+00 WtEn= 0.00D+00
 Coeff-Com:  0.752D-05 0.828D-03-0.240D-02-0.488D-02-0.131D-01-0.145D-01
 Coeff-Com:  0.107D+00 0.302D+00 0.626D+00
 Coeff:      0.752D-05 0.828D-03-0.240D-02-0.488D-02-0.131D-01-0.145D-01
 Coeff:      0.107D+00 0.302D+00 0.626D+00
 Gap=     0.293 Goal=   None    Shift=    0.000
 RMSDP=5.31D-07 MaxDP=5.51D-05 DE=-5.64D-07 OVMax= 7.17D-05

 Cycle  11  Pass 1  IDiag  1:
 RMSU=  3.65D-07    CP:  9.30D-01  6.50D-01  1.86D+00  8.04D-01  9.07D-01
                    CP:  9.15D-01  1.19D+00  9.36D-01  8.94D-01
 E= -1326.65695617981     Delta-E=       -0.000000071484 Rises=F Damp=F
 DIIS: error= 1.97D-06 at cycle  10 NSaved=  10.
 NSaved=10 IEnMin=10 EnMin= -1326.65695617981     IErMin=10 ErrMin= 1.97D-06
 ErrMax= 1.97D-06  0.00D+00 EMaxC= 1.00D-01 BMatC= 1.12D-08 BMatP= 7.73D-08
 IDIUse=1 WtCom= 1.00D+00 WtEn= 0.00D+00
 Coeff-Com:  0.882D-05-0.173D-03 0.406D-03-0.460D-04-0.131D-02-0.636D-02
 Coeff-Com: -0.300D-01 0.293D-01 0.296D+00 0.712D+00
 Coeff:      0.882D-05-0.173D-03 0.406D-03-0.460D-04-0.131D-02-0.636D-02
 Coeff:     -0.300D-01 0.293D-01 0.296D+00 0.712D+00
 Gap=     0.293 Goal=   None    Shift=    0.000
 RMSDP=2.23D-07 MaxDP=2.71D-05 DE=-7.15D-08 OVMax= 3.65D-05

 Cycle  12  Pass 1  IDiag  1:
 RMSU=  1.74D-07    CP:  9.30D-01  6.50D-01  1.86D+00  8.03D-01  9.08D-01
                    CP:  9.15D-01  1.19D+00  9.46D-01  9.60D-01  1.02D+00
 E= -1326.65695619285     Delta-E=       -0.000000013041 Rises=F Damp=F
 DIIS: error= 1.17D-06 at cycle  11 NSaved=  11.
 NSaved=11 IEnMin=11 EnMin= -1326.65695619285     IErMin=11 ErrMin= 1.17D-06
 ErrMax= 1.17D-06  0.00D+00 EMaxC= 1.00D-01 BMatC= 9.02D-10 BMatP= 1.12D-08
 IDIUse=1 WtCom= 1.00D+00 WtEn= 0.00D+00
 Coeff-Com:  0.287D-05-0.122D-03 0.322D-03 0.366D-03 0.724D-03-0.651D-03
 Coeff-Com: -0.193D-01-0.217D-01 0.185D-01 0.227D+00 0.795D+00
 Coeff:      0.287D-05-0.122D-03 0.322D-03 0.366D-03 0.724D-03-0.651D-03
 Coeff:     -0.193D-01-0.217D-01 0.185D-01 0.227D+00 0.795D+00
 Gap=     0.293 Goal=   None    Shift=    0.000
 RMSDP=7.21D-08 MaxDP=7.93D-06 DE=-1.30D-08 OVMax= 1.18D-05

 Cycle  13  Pass 1  IDiag  1:
 RMSU=  6.44D-08    CP:  9.30D-01  6.50D-01  1.86D+00  8.03D-01  9.08D-01
                    CP:  9.15D-01  1.19D+00  9.53D-01  9.60D-01  1.07D+00
                    CP:  1.02D+00
 E= -1326.65695619401     Delta-E=       -0.000000001161 Rises=F Damp=F
 DIIS: error= 5.20D-07 at cycle  12 NSaved=  12.
 NSaved=12 IEnMin=12 EnMin= -1326.65695619401     IErMin=12 ErrMin= 5.20D-07
 ErrMax= 5.20D-07  0.00D+00 EMaxC= 1.00D-01 BMatC= 2.42D-10 BMatP= 9.02D-10
 IDIUse=1 WtCom= 1.00D+00 WtEn= 0.00D+00
 Coeff-Com:  0.448D-06-0.368D-04 0.100D-03 0.174D-03 0.582D-03 0.676D-03
 Coeff-Com: -0.459D-02-0.144D-01-0.400D-01-0.218D-02 0.384D+00 0.675D+00
 Coeff:      0.448D-06-0.368D-04 0.100D-03 0.174D-03 0.582D-03 0.676D-03
 Coeff:     -0.459D-02-0.144D-01-0.400D-01-0.218D-02 0.384D+00 0.675D+00
 Gap=     0.293 Goal=   None    Shift=    0.000
 RMSDP=2.91D-08 MaxDP=3.08D-06 DE=-1.16D-09 OVMax= 5.75D-06

 Cycle  14  Pass 1  IDiag  1:
 RMSU=  2.06D-08    CP:  9.30D-01  6.50D-01  1.86D+00  8.03D-01  9.08D-01
                    CP:  9.15D-01  1.19D+00  9.55D-01  9.62D-01  1.10D+00
                    CP:  1.10D+00  9.41D-01
 E= -1326.65695619431     Delta-E=       -0.000000000305 Rises=F Damp=F
 DIIS: error= 2.54D-07 at cycle  13 NSaved=  13.
 NSaved=13 IEnMin=13 EnMin= -1326.65695619431     IErMin=13 ErrMin= 2.54D-07
 ErrMax= 2.54D-07  0.00D+00 EMaxC= 1.00D-01 BMatC= 2.77D-11 BMatP= 2.42D-10
 IDIUse=1 WtCom= 1.00D+00 WtEn= 0.00D+00
 Coeff-Com:  0.184D-07-0.223D-05 0.570D-05 0.221D-04 0.164D-03 0.324D-03
 Coeff-Com:  0.405D-03-0.284D-02-0.196D-01-0.292D-01 0.497D-01 0.285D+00
 Coeff-Com:  0.716D+00
 Coeff:      0.184D-07-0.223D-05 0.570D-05 0.221D-04 0.164D-03 0.324D-03
 Coeff:      0.405D-03-0.284D-02-0.196D-01-0.292D-01 0.497D-01 0.285D+00
 Coeff:      0.716D+00
 Gap=     0.293 Goal=   None    Shift=    0.000
 RMSDP=1.09D-08 MaxDP=1.20D-06 DE=-3.05D-10 OVMax= 1.94D-06

 Cycle  15  Pass 1  IDiag  1:
 RMSU=  7.50D-09    CP:  9.30D-01  6.50D-01  1.86D+00  8.03D-01  9.08D-01
                    CP:  9.15D-01  1.19D+00  9.55D-01  9.60D-01  1.10D+00
                    CP:  1.11D+00  1.02D+00  9.64D-01
 E= -1326.65695619425     Delta-E=        0.000000000059 Rises=F Damp=F
 DIIS: error= 4.22D-08 at cycle  14 NSaved=  14.
 NSaved=14 IEnMin=13 EnMin= -1326.65695619431     IErMin=14 ErrMin= 4.22D-08
 ErrMax= 4.22D-08  0.00D+00 EMaxC= 1.00D-01 BMatC= 2.92D-12 BMatP= 2.77D-11
 IDIUse=1 WtCom= 1.00D+00 WtEn= 0.00D+00
 Coeff-Com: -0.199D-07 0.340D-05-0.990D-05-0.153D-04-0.126D-04 0.183D-04
 Coeff-Com:  0.708D-03 0.899D-03-0.243D-02-0.105D-01-0.336D-01 0.233D-01
 Coeff-Com:  0.276D+00 0.746D+00
 Coeff:     -0.199D-07 0.340D-05-0.990D-05-0.153D-04-0.126D-04 0.183D-04
 Coeff:      0.708D-03 0.899D-03-0.243D-02-0.105D-01-0.336D-01 0.233D-01
 Coeff:      0.276D+00 0.746D+00
 Gap=     0.293 Goal=   None    Shift=    0.000
 RMSDP=3.97D-09 MaxDP=3.61D-07 DE= 5.91D-11 OVMax= 7.83D-07

 SCF Done:  E(RM062X) =  -1326.65695619     A.U. after   15 cycles
            NFock= 15  Conv=0.40D-08     -V/T= 2.0059
 KE= 1.318821104736D+03 PE=-9.567433441291D+03 EE= 3.681209426995D+03
 Leave Link  502 at Tue Jan  7 22:06:27 2025, MaxMem=  4026531840 cpu:           51092.2 elap:            2558.4
 (Enter /usr/local/intel/g16/l601.exe)
 Copying SCF densities to generalized density rwf, IOpCl= 0 IROHF=0.

 **********************************************************************

            Population analysis using the SCF Density.

 **********************************************************************

 Orbital symmetries:
       Occupied  (A) (A) (A) (A) (A) (A) (A) (A) (A) (A) (A) (A)
                 (A) (A) (A) (A) (A) (A) (A) (A) (A) (A) (A) (A)
                 (A) (A) (A) (A) (A) (A) (A) (A) (A) (A) (A) (A)
                 (A) (A) (A) (A) (A) (A) (A) (A) (A) (A) (A) (A)
                 (A) (A) (A) (A) (A) (A) (A) (A) (A) (A) (A) (A)
                 (A) (A) (A) (A) (A) (A) (A) (A) (A) (A) (A) (A)
                 (A) (A) (A) (A) (A) (A) (A) (A) (A) (A) (A) (A)
                 (A) (A) (A) (A) (A) (A) (A) (A) (A) (A) (A) (A)
                 (A) (A) (A) (A) (A) (A) (A) (A) (A) (A) (A) (A)
                 (A) (A) (A)
       Virtual   (A) (A) (A) (A) (A) (A) (A) (A) (A) (A) (A) (A)
                 (A) (A) (A) (A) (A) (A) (A) (A) (A) (A) (A) (A)
                 (A) (A) (A) (A) (A) (A) (A) (A) (A) (A) (A) (A)
                 (A) (A) (A) (A) (A) (A) (A) (A) (A) (A) (A) (A)
                 (A) (A) (A) (A) (A) (A) (A) (A) (A) (A) (A) (A)
                 (A) (A) (A) (A) (A) (A) (A) (A) (A) (A) (A) (A)
                 (A) (A) (A) (A) (A) (A) (A) (A) (A) (A) (A) (A)
                 (A) (A) (A) (A) (A) (A) (A) (A) (A) (A) (A) (A)
                 (A) (A) (A) (A) (A) (A) (A) (A) (A) (A) (A) (A)
                 (A) (A) (A) (A) (A) (A) (A) (A) (A) (A) (A) (A)
                 (A) (A) (A) (A) (A) (A) (A) (A) (A) (A) (A) (A)
                 (A) (A) (A) (A) (A) (A) (A) (A) (A) (A) (A) (A)
                 (A) (A) (A) (A) (A) (A) (A) (A) (A) (A) (A) (A)
                 (A) (A) (A) (A) (A) (A) (A) (A) (A) (A) (A) (A)
                 (A) (A) (A) (A) (A) (A) (A) (A) (A) (A) (A) (A)
                 (A) (A) (A) (A) (A) (A) (A) (A) (A) (A) (A) (A)
                 (A) (A) (A) (A) (A) (A) (A) (A) (A) (A) (A) (A)
                 (A) (A) (A) (A) (A) (A) (A) (A) (A) (A) (A) (A)
                 (A) (A) (A) (A) (A) (A) (A) (A) (A) (A) (A) (A)
                 (A) (A) (A) (A) (A) (A) (A) (A) (A) (A) (A) (A)
                 (A) (A) (A) (A) (A) (A) (A) (A) (A) (A) (A) (A)
                 (A) (A) (A) (A) (A) (A) (A) (A) (A) (A) (A) (A)
                 (A) (A) (A) (A) (A) (A) (A) (A) (A) (A) (A) (A)
                 (A) (A) (A) (A) (A) (A) (A) (A) (A) (A) (A) (A)
                 (A) (A) (A) (A) (A) (A) (A) (A) (A) (A) (A) (A)
                 (A) (A) (A) (A) (A) (A) (A) (A) (A) (A) (A) (A)
                 (A) (A) (A) (A) (A) (A) (A) (A) (A) (A) (A) (A)
                 (A) (A) (A) (A) (A) (A) (A) (A) (A) (A) (A) (A)
                 (A) (A) (A) (A) (A) (A) (A) (A) (A) (A) (A) (A)
                 (A) (A) (A) (A) (A) (A) (A) (A) (A) (A) (A) (A)
                 (A) (A) (A) (A) (A) (A) (A) (A) (A) (A) (A) (A)
                 (A) (A) (A) (A) (A) (A) (A) (A) (A) (A) (A) (A)
                 (A) (A) (A) (A) (A) (A) (A) (A) (A) (A) (A) (A)
                 (A) (A) (A) (A) (A) (A) (A) (A) (A) (A) (A) (A)
                 (A) (A) (A) (A) (A) (A) (A) (A) (A) (A) (A) (A)
                 (A) (A) (A) (A) (A) (A) (A) (A) (A) (A) (A) (A)
                 (A) (A) (A) (A) (A) (A) (A) (A) (A) (A) (A) (A)
                 (A) (A) (A) (A) (A) (A) (A) (A) (A) (A) (A) (A)
                 (A) (A) (A) (A) (A) (A) (A) (A) (A) (A) (A) (A)
                 (A) (A) (A) (A) (A) (A) (A) (A) (A) (A) (A) (A)
                 (A) (A) (A) (A) (A) (A) (A) (A) (A) (A) (A) (A)
                 (A) (A) (A) (A) (A) (A) (A) (A) (A) (A) (A) (A)
                 (A) (A) (A) (A) (A) (A) (A) (A) (A) (A) (A) (A)
                 (A) (A) (A) (A) (A) (A) (A) (A) (A) (A) (A) (A)
                 (A) (A) (A) (A) (A) (A) (A) (A) (A) (A) (A) (A)
                 (A) (A) (A) (A) (A) (A) (A) (A) (A) (A) (A) (A)
                 (A) (A) (A) (A) (A) (A) (A) (A) (A) (A) (A) (A)
                 (A) (A) (A) (A) (A) (A) (A) (A) (A) (A) (A) (A)
                 (A) (A) (A) (A) (A) (A) (A) (A) (A) (A) (A) (A)
                 (A) (A) (A) (A) (A) (A) (A) (A) (A) (A) (A) (A)
                 (A) (A) (A) (A) (A) (A) (A) (A) (A) (A) (A) (A)
                 (A) (A) (A) (A) (A) (A) (A) (A) (A) (A) (A) (A)
                 (A) (A) (A) (A) (A) (A) (A) (A) (A) (A) (A) (A)
                 (A) (A) (A) (A) (A) (A) (A) (A) (A) (A) (A) (A)
                 (A) (A) (A) (A) (A) (A) (A) (A) (A) (A) (A) (A)
                 (A) (A) (A) (A) (A) (A) (A) (A) (A) (A) (A) (A)
                 (A) (A) (A) (A) (A) (A) (A) (A) (A) (A) (A) (A)
                 (A) (A) (A) (A) (A) (A) (A) (A) (A) (A) (A) (A)
                 (A) (A) (A) (A) (A) (A) (A) (A) (A) (A) (A) (A)
                 (A) (A) (A) (A) (A) (A) (A) (A) (A) (A) (A) (A)
                 (A) (A) (A) (A) (A) (A) (A) (A) (A) (A) (A) (A)
                 (A) (A) (A) (A) (A) (A) (A) (A) (A) (A) (A) (A)
                 (A) (A) (A) (A) (A) (A) (A) (A) (A) (A) (A) (A)
                 (A) (A) (A) (A) (A) (A) (A) (A) (A) (A) (A) (A)
                 (A) (A) (A) (A) (A) (A) (A) (A) (A) (A) (A) (A)
                 (A) (A) (A) (A) (A) (A) (A) (A) (A) (A) (A) (A)
                 (A) (A) (A) (A) (A) (A) (A) (A) (A) (A) (A) (A)
                 (A) (A) (A) (A) (A) (A) (A) (A) (A) (A) (A) (A)
                 (A) (A) (A) (A) (A) (A) (A) (A) (A) (A) (A) (A)
                 (A) (A) (A) (A) (A) (A) (A) (A) (A) (A) (A) (A)
                 (A) (A) (A) (A) (A) (A) (A) (A) (A) (A) (A) (A)
                 (A) (A) (A) (A) (A) (A) (A) (A) (A) (A) (A) (A)
                 (A) (A) (A) (A) (A) (A) (A) (A) (A) (A) (A) (A)
                 (A) (A) (A) (A) (A) (A) (A) (A) (A) (A) (A) (A)
                 (A) (A) (A) (A) (A) (A) (A) (A) (A) (A) (A) (A)
                 (A) (A) (A) (A) (A) (A) (A) (A) (A) (A) (A) (A)
                 (A) (A) (A) (A) (A) (A) (A) (A) (A) (A) (A) (A)
                 (A) (A) (A) (A) (A) (A) (A) (A) (A) (A) (A) (A)
                 (A) (A) (A) (A) (A) (A) (A) (A) (A) (A) (A) (A)
                 (A) (A) (A) (A) (A) (A) (A) (A) (A) (A) (A) (A)
                 (A) (A) (A) (A) (A) (A) (A) (A) (A) (A) (A) (A)
                 (A) (A) (A) (A) (A) (A) (A) (A) (A) (A) (A) (A)
                 (A) (A) (A) (A) (A) (A) (A) (A) (A) (A) (A) (A)
                 (A) (A) (A) (A) (A) (A) (A) (A) (A) (A) (A) (A)
                 (A) (A) (A) (A) (A) (A) (A) (A) (A) (A) (A) (A)
                 (A) (A) (A) (A)
 The electronic state is 1-A.
 Alpha  occ. eigenvalues --  -19.66759 -19.66220 -19.61419 -14.79377 -10.67120
 Alpha  occ. eigenvalues --  -10.60682 -10.59346 -10.59335 -10.58896 -10.55140
 Alpha  occ. eigenvalues --  -10.55096 -10.55037 -10.55033 -10.54896 -10.54817
 Alpha  occ. eigenvalues --  -10.54764 -10.54713 -10.54412 -10.54355 -10.54306
 Alpha  occ. eigenvalues --  -10.54138 -10.54125 -10.54061 -10.54038 -10.54011
 Alpha  occ. eigenvalues --  -10.53973 -10.53907 -10.53888 -10.53341 -10.53093
 Alpha  occ. eigenvalues --  -10.51555  -1.21375  -1.18585  -1.12173  -1.01979
 Alpha  occ. eigenvalues --   -0.95932  -0.95152  -0.94446  -0.90026  -0.88878
 Alpha  occ. eigenvalues --   -0.86121  -0.84209  -0.84022  -0.83755  -0.83517
 Alpha  occ. eigenvalues --   -0.82471  -0.81708  -0.79463  -0.75847  -0.73375
 Alpha  occ. eigenvalues --   -0.71479  -0.69443  -0.69058  -0.68553  -0.68164
 Alpha  occ. eigenvalues --   -0.67342  -0.64696  -0.64532  -0.63339  -0.60030
 Alpha  occ. eigenvalues --   -0.59774  -0.58849  -0.57052  -0.56847  -0.56005
 Alpha  occ. eigenvalues --   -0.55203  -0.54672  -0.53444  -0.52540  -0.51698
 Alpha  occ. eigenvalues --   -0.51398  -0.51140  -0.50879  -0.50388  -0.49801
 Alpha  occ. eigenvalues --   -0.49410  -0.49091  -0.48411  -0.48114  -0.47938
 Alpha  occ. eigenvalues --   -0.46946  -0.46534  -0.45995  -0.45791  -0.45313
 Alpha  occ. eigenvalues --   -0.44709  -0.44278  -0.43941  -0.43653  -0.43115
 Alpha  occ. eigenvalues --   -0.42736  -0.42232  -0.42150  -0.41699  -0.41235
 Alpha  occ. eigenvalues --   -0.40838  -0.40473  -0.40003  -0.39369  -0.38315
 Alpha  occ. eigenvalues --   -0.38117  -0.37131  -0.36500  -0.33818  -0.31399
 Alpha  occ. eigenvalues --   -0.30932  -0.30263  -0.30062  -0.29721  -0.29001
 Alpha  occ. eigenvalues --   -0.28650
 Alpha virt. eigenvalues --    0.00636   0.00954   0.01565   0.02019   0.02257
 Alpha virt. eigenvalues --    0.03088   0.04604   0.05773   0.07049   0.07940
 Alpha virt. eigenvalues --    0.08313   0.08825   0.09196   0.09710   0.10180
 Alpha virt. eigenvalues --    0.10777   0.11400   0.11442   0.11901   0.12310
 Alpha virt. eigenvalues --    0.12596   0.12786   0.13162   0.13555   0.13716
 Alpha virt. eigenvalues --    0.13754   0.14296   0.14713   0.15132   0.15355
 Alpha virt. eigenvalues --    0.15702   0.15808   0.16345   0.16812   0.17302
 Alpha virt. eigenvalues --    0.17575   0.17649   0.18004   0.18561   0.18779
 Alpha virt. eigenvalues --    0.19293   0.19443   0.19897   0.20295   0.20565
 Alpha virt. eigenvalues --    0.20943   0.21225   0.21613   0.22041   0.22621
 Alpha virt. eigenvalues --    0.22685   0.22857   0.23284   0.23456   0.23694
 Alpha virt. eigenvalues --    0.24608   0.25037   0.25141   0.25369   0.25461
 Alpha virt. eigenvalues --    0.25908   0.26081   0.26646   0.26978   0.27334
 Alpha virt. eigenvalues --    0.27481   0.27617   0.27990   0.28279   0.28375
 Alpha virt. eigenvalues --    0.28543   0.28968   0.29669   0.30115   0.30859
 Alpha virt. eigenvalues --    0.31191   0.31443   0.31703   0.32026   0.32096
 Alpha virt. eigenvalues --    0.32559   0.33120   0.33583   0.33682   0.34265
 Alpha virt. eigenvalues --    0.34837   0.35347   0.36030   0.36130   0.36397
 Alpha virt. eigenvalues --    0.37228   0.37394   0.37642   0.38214   0.38414
 Alpha virt. eigenvalues --    0.38595   0.38893   0.39232   0.39591   0.39720
 Alpha virt. eigenvalues --    0.39965   0.40543   0.40637   0.40995   0.41168
 Alpha virt. eigenvalues --    0.41517   0.42030   0.42171   0.42256   0.42478
 Alpha virt. eigenvalues --    0.42792   0.42989   0.43275   0.43614   0.43901
 Alpha virt. eigenvalues --    0.44014   0.44215   0.44228   0.44582   0.44981
 Alpha virt. eigenvalues --    0.45054   0.45266   0.45747   0.46047   0.46245
 Alpha virt. eigenvalues --    0.46271   0.46877   0.47073   0.47168   0.47525
 Alpha virt. eigenvalues --    0.47659   0.48398   0.48598   0.48916   0.49034
 Alpha virt. eigenvalues --    0.49405   0.49602   0.50021   0.50355   0.50830
 Alpha virt. eigenvalues --    0.51361   0.51546   0.51569   0.51889   0.52113
 Alpha virt. eigenvalues --    0.52440   0.52999   0.53072   0.53202   0.53600
 Alpha virt. eigenvalues --    0.53797   0.54288   0.54798   0.54864   0.55034
 Alpha virt. eigenvalues --    0.55186   0.55674   0.56000   0.56038   0.56708
 Alpha virt. eigenvalues --    0.57360   0.57508   0.58038   0.58230   0.58434
 Alpha virt. eigenvalues --    0.59111   0.59695   0.59843   0.60335   0.61143
 Alpha virt. eigenvalues --    0.61748   0.61982   0.62546   0.62920   0.64172
 Alpha virt. eigenvalues --    0.64633   0.64908   0.65398   0.65800   0.66225
 Alpha virt. eigenvalues --    0.66673   0.67615   0.68091   0.68488   0.68758
 Alpha virt. eigenvalues --    0.69377   0.69669   0.70188   0.70242   0.70810
 Alpha virt. eigenvalues --    0.71328   0.71615   0.72093   0.72587   0.73100
 Alpha virt. eigenvalues --    0.73354   0.73896   0.74186   0.74742   0.74998
 Alpha virt. eigenvalues --    0.75452   0.76096   0.76329   0.76782   0.77101
 Alpha virt. eigenvalues --    0.77582   0.78423   0.78933   0.79501   0.79608
 Alpha virt. eigenvalues --    0.79943   0.81160   0.81263   0.81872   0.82097
 Alpha virt. eigenvalues --    0.82321   0.83298   0.83636   0.83868   0.84070
 Alpha virt. eigenvalues --    0.84917   0.85232   0.86066   0.86489   0.86841
 Alpha virt. eigenvalues --    0.87222   0.87831   0.88049   0.89075   0.89258
 Alpha virt. eigenvalues --    0.89530   0.89621   0.90744   0.91030   0.91284
 Alpha virt. eigenvalues --    0.91740   0.92078   0.92680   0.93399   0.93620
 Alpha virt. eigenvalues --    0.94163   0.94481   0.94671   0.95556   0.96236
 Alpha virt. eigenvalues --    0.96655   0.96825   0.97463   0.98104   0.98396
 Alpha virt. eigenvalues --    0.98623   0.99120   0.99864   1.00110   1.00830
 Alpha virt. eigenvalues --    1.01459   1.01870   1.03038   1.03195   1.04123
 Alpha virt. eigenvalues --    1.04262   1.04737   1.05275   1.05800   1.06712
 Alpha virt. eigenvalues --    1.06961   1.07589   1.07955   1.08700   1.09163
 Alpha virt. eigenvalues --    1.09759   1.10744   1.11313   1.11405   1.12176
 Alpha virt. eigenvalues --    1.12492   1.13079   1.13291   1.14170   1.14799
 Alpha virt. eigenvalues --    1.14991   1.15241   1.15777   1.16665   1.16990
 Alpha virt. eigenvalues --    1.17664   1.18152   1.18463   1.18880   1.19381
 Alpha virt. eigenvalues --    1.20076   1.20473   1.20819   1.21680   1.22009
 Alpha virt. eigenvalues --    1.22597   1.23128   1.23788   1.24187   1.24855
 Alpha virt. eigenvalues --    1.25550   1.25886   1.26186   1.26916   1.26956
 Alpha virt. eigenvalues --    1.27779   1.28391   1.28783   1.29452   1.29733
 Alpha virt. eigenvalues --    1.30037   1.30115   1.31329   1.31706   1.31808
 Alpha virt. eigenvalues --    1.33113   1.33236   1.33983   1.34303   1.34796
 Alpha virt. eigenvalues --    1.35253   1.35560   1.35966   1.37219   1.37400
 Alpha virt. eigenvalues --    1.38383   1.38390   1.38994   1.39531   1.40132
 Alpha virt. eigenvalues --    1.40432   1.41395   1.42711   1.43291   1.43998
 Alpha virt. eigenvalues --    1.45045   1.45833   1.46182   1.46602   1.47426
 Alpha virt. eigenvalues --    1.48364   1.48555   1.49221   1.49382   1.51213
 Alpha virt. eigenvalues --    1.51668   1.51801   1.52169   1.52610   1.53480
 Alpha virt. eigenvalues --    1.53749   1.54472   1.54801   1.55151   1.55595
 Alpha virt. eigenvalues --    1.56059   1.56898   1.57359   1.57694   1.57858
 Alpha virt. eigenvalues --    1.58405   1.58663   1.59542   1.59841   1.60244
 Alpha virt. eigenvalues --    1.60524   1.60829   1.61317   1.61908   1.62110
 Alpha virt. eigenvalues --    1.62443   1.63262   1.63369   1.63693   1.64838
 Alpha virt. eigenvalues --    1.65076   1.65374   1.66029   1.66382   1.66692
 Alpha virt. eigenvalues --    1.66929   1.67055   1.67892   1.68207   1.68814
 Alpha virt. eigenvalues --    1.68948   1.69723   1.70057   1.70379   1.71104
 Alpha virt. eigenvalues --    1.71281   1.71807   1.72591   1.72917   1.73226
 Alpha virt. eigenvalues --    1.73694   1.74262   1.74721   1.75294   1.75936
 Alpha virt. eigenvalues --    1.76218   1.76517   1.76784   1.77350   1.78046
 Alpha virt. eigenvalues --    1.78888   1.79056   1.79382   1.79681   1.80034
 Alpha virt. eigenvalues --    1.80207   1.80372   1.81493   1.81913   1.82290
 Alpha virt. eigenvalues --    1.82785   1.83137   1.83855   1.84309   1.85527
 Alpha virt. eigenvalues --    1.85974   1.86622   1.87823   1.88112   1.88882
 Alpha virt. eigenvalues --    1.89265   1.89529   1.90497   1.90807   1.91893
 Alpha virt. eigenvalues --    1.92543   1.92813   1.93115   1.94817   1.94974
 Alpha virt. eigenvalues --    1.96679   1.97172   1.97639   1.98679   1.99632
 Alpha virt. eigenvalues --    2.00036   2.00838   2.01140   2.01926   2.02133
 Alpha virt. eigenvalues --    2.02549   2.03547   2.03836   2.04924   2.05753
 Alpha virt. eigenvalues --    2.06006   2.06331   2.07032   2.07571   2.07817
 Alpha virt. eigenvalues --    2.08589   2.09758   2.10619   2.11073   2.11423
[...]
 105,-0.00000229,0.00000216,0.00001009,0.00000228,-0.00000156,0.0000008
 7,-0.00000046,-0.00000261,0.00000121,-0.00000291,-0.00000398,0.0000009
 7,0.00000246,0.00002285,0.00000347,0.00000731,-0.00006649,0.00001173,0
 .00004813,-0.00002786,0.00005023,-0.00000152,-0.00000549,0.00000405,0.
 00001698,-0.00000218,-0.00003345,-0.00000992,0.00000070,-0.00000264,0.
 00000167,-0.00000128,-0.00000031,-0.00000277,-0.00000160,0.00000101,-0
 .00000160,-0.00000100,0.00000033,-0.00000005,-0.00000081,-0.00000119,0
 .00000557,0.00000260,0.00000559,-0.00050705,-0.00055585,-0.00036438,-0
 .00107450,0.00075802,0.00222469,0.19859085,-0.00000777,-0.00000675,0.0
 0000651,0.00000599,-0.00000635,0.00001365,0.00001134,-0.00000198,0.000
 01367,-0.00000735,0.00000719,-0.00000844,-0.00001517,0.00000006,-0.000
 00493,0.00000870,-0.00000173,-0.00000114,-0.00000017,-0.00000020,-0.00
 000083,-0.00000059,0.00005766,-0.00001465,0.00002051,-0.00000870,0.000
 00216,0.00002807,-0.00001101,0.00002157,0.00002586,-0.00000393,-0.0000
 6782,-0.00002504,-0.00002347,-0.00003119,0.00014759,0.00000616,-0.0001
 7189,-0.00006718,0.00000487,-0.00000477,-0.00000937,0.00002844,-0.0000
 0672,0.00000420,0.00000087,0.00000832,0.00000091,0.00001523,-0.0000072
 8,0.00070794,-0.00099169,0.00068080,-0.00001193,-0.00000287,0.00000873
 ,0.00001006,0.00003370,0.00001434,0.00001161,0.00000835,-0.00000467,-0
 .00000659,-0.00000052,-0.00000207,0.00000061,0.00000002,-0.00000247,-0
 .00000454,-0.00000154,0.00000082,0.00000175,0.00000195,0.00000055,-0.0
 0001022,-0.00000091,0.00000114,0.00142975,-0.00020655,0.00318168,0.011
 35961,0.01167028,0.00755948,-0.10609866,-0.13436809,-0.06691109,-0.022
 85306,-0.01001878,-0.01644745,-0.00070180,-0.00517037,0.00274608,0.000
 00295,0.00000250,-0.00000317,0.00000453,0.00000121,-0.00000304,-0.0000
 0111,0.00001016,-0.00000124,-0.00000170,-0.00000367,-0.00000093,0.0000
 0008,-0.00000128,-0.00000064,-0.00000052,0.00000115,0.00000033,0.00000
 082,-0.00000027,0.00000110,-0.00000071,-0.00000047,0.00000034,-0.00000
 002,0.00000111,-0.00000052,0.00000416,0.00000538,0.00001321,0.00000204
 ,-0.00000503,-0.00000072,-0.00000178,-0.00000406,0.00000100,-0.0000003
 3,-0.00000295,0.00000298,0.00000450,-0.00000841,-0.00000009,-0.0000035
 5,0.00002686,-0.00001576,-0.00002288,0.00002501,-0.00003017,-0.0000023
 7,-0.00000595,-0.00000389,0.00000741,-0.00002667,-0.00001912,-0.000016
 47,-0.00000660,0.00000230,0.00000365,0.00000103,-0.00000334,-0.0000017
 3,-0.00000114,0.00000100,-0.00000168,-0.00000072,-0.00000029,-0.000001
 33,-0.00000086,-0.00000141,0.00000356,-0.00000191,0.00000244,0.0005700
 1,0.00036507,0.00044455,0.00006894,0.00053917,-0.00106276,0.11555153,0
 .13777457,0.00000869,0.00001999,-0.00001415,0.00003861,-0.00002388,0.0
 0001155,0.00004973,0.00001709,0.00000890,-0.00002368,-0.00000619,-0.00
 000128,-0.00005128,-0.00000973,-0.00000814,0.00002019,0.00000392,-0.00
 000567,-0.00000173,-0.00000077,0.00000110,-0.00016857,-0.00006628,0.00
 001026,0.00017572,0.00016736,0.00012715,0.00001257,0.00000449,0.000027
 72,0.00000099,-0.00004286,0.00001505,-0.00000610,0.00002927,-0.0000531
 2,0.00066299,-0.00016953,-0.00058211,0.00000862,0.00002110,0.00002871,
 -0.00000033,-0.00002111,0.00001693,0.00001305,-0.00000773,-0.00001090,
 -0.00000894,0.00001695,-0.00000393,0.00039650,0.00054425,-0.00069554,-
 0.00008462,0.00004632,-0.00004708,0.00000282,0.00000402,-0.00000188,0.
 00000808,0.00000123,-0.00000806,-0.00000420,-0.00000053,0.00000329,0.0
 0000273,0.00000011,-0.00000102,-0.00000107,-0.00000069,-0.00000265,-0.
 00000169,-0.00000070,0.00000187,-0.00000148,-0.00000067,-0.00000125,-0
 .00530344,0.00363898,0.00200444,-0.01336346,-0.01229861,-0.00553155,-0
 .10737098,-0.06695737,-0.11313555,0.00436453,0.00341896,0.00585943,-0.
 00285353,0.00231505,0.00483933,-0.00001388,-0.00000344,0.00000326,0.00
 000434,-0.00000590,-0.00000035,0.00000476,-0.00001923,0.00001537,-0.00
 000039,0.00000130,-0.00000433,-0.00000202,-0.00000012,0.00000103,-0.00
 000159,-0.00000034,0.00000151,0.00000088,-0.00000025,-0.00000020,-0.00
 000195,-0.00000075,-0.00000002,0.00000063,0.00000100,-0.00000090,-0.00
 000508,0.00000593,-0.00000842,0.00000028,-0.00000543,-0.00000036,-0.00
 000022,-0.00000163,-0.00000075,0.00000124,-0.00000096,0.00000204,-0.00
 000144,-0.00001878,0.00000658,-0.00000764,0.00000941,-0.00001397,0.000
 01216,-0.00003603,0.00000362,0.00000162,-0.00000211,0.00000256,-0.0000
 0213,0.00000065,0.00001093,0.00000205,-0.00000071,-0.00000300,0.000002
 32,0.00000205,-0.00000194,-0.00000036,0.,0.00000088,-0.00000153,-0.000
 00017,-0.00000016,-0.00000101,0.00000043,-0.00000107,0.00000195,0.0000
 0187,0.00000066,-0.00064256,-0.00058955,-0.00042682,0.00238301,-0.0004
 5268,-0.00166434,0.11947664,0.07126401,0.11102941,-0.00000778,0.000007
 54,-0.00000711,0.00006108,-0.00003938,0.00002064,0.00004181,0.00001644
 ,-0.00006550,-0.00001829,-0.00000999,0.00005478,-0.00002763,-0.0000062
 7,0.00002148,0.00001311,0.00000183,-0.00000794,-0.00000189,-0.00000065
 ,0.00000112,-0.00002864,0.00005634,0.00004856,-0.00025685,-0.00015748,
 -0.00007887,0.00002306,0.00008774,-0.00013018,0.00000129,-0.00007811,0
 .00001199,0.00002041,0.00020856,-0.00002797,0.00005871,0.00080886,-0.0
 0046069,0.00000800,0.00003663,0.00002087,0.00001086,-0.00003458,0.0000
 4226,0.00003959,-0.00004362,-0.00000777,-0.00001551,0.00004531,0.00002
 314,0.00066130,-0.00389430,-0.00471944,-0.00024879,-0.00025175,-0.0001
 0357,-0.00002588,-0.00002118,0.00005126,0.00000270,-0.00001320,0.00005
 673,-0.00000970,-0.00000795,-0.00002140,-0.00000645,-0.00000225,0.0000
 0737,-0.00000492,-0.00000189,0.00000574,0.00000666,0.00000068,0.000011
 27,0.00000298,-0.00000092,-0.00001395,-0.00039411,-0.00076416,0.000574
 11,0.00401224,-0.00181354,-0.00264247,0.00559032,-0.00280744,0.0029303
 1,-0.15348779,0.07882488,-0.12018438,-0.00926869,0.01231363,-0.0137765
 4,-0.00000339,0.00000569,0.00000089,0.00000056,0.00000057,0.00000122,-
 0.00000364,-0.00000808,0.00000329,0.00000132,-0.00000115,0.00000108,-0
 .00000137,-0.00000158,0.00000013,-0.00000215,0.00000125,0.00000074,0.0
 0000085,0.00000096,0.00000006,-0.00000174,-0.00000055,-0.00000003,0.00
 000097,-0.00000026,-0.00000039,-0.00001023,0.00001018,-0.00000563,-0.0
 0000323,-0.00001115,-0.00000677,-0.00000530,-0.00000909,-0.00000586,-0
 .00001077,-0.00001176,0.00000185,0.00000837,-0.00000742,0.00002330,-0.
 00003714,0.00000918,-0.00013875,0.00000158,0.00001463,0.00002934,-0.00
 003149,-0.00002669,0.00001843,0.00000398,0.00004540,-0.00009167,0.0000
 0384,0.00001091,0.00000403,-0.00000434,-0.00000029,0.00000522,-0.00000
 463,-0.00000078,0.00000054,-0.00000124,-0.00000006,0.00000149,0.000000
 99,0.00000015,-0.00000039,0.00000652,0.00000620,0.00000997,-0.00048147
 ,0.00022211,0.00054135,0.00019084,-0.00023225,0.00008904,-0.00129233,0
 .00094291,0.00210295,0.15605542,-0.00000529,-0.00000620,0.00000945,0.0
 0000449,-0.00001211,0.00000351,-0.00001899,0.,0.00000916,0.00000808,0.
 00000074,-0.00001134,0.00001217,0.00000234,-0.00000249,-0.00000689,-0.
 00000123,0.00000237,0.00000051,-0.00000009,0.00000002,-0.00000707,0.00
 001200,-0.00000327,-0.00009039,-0.00002758,0.00001349,-0.00001293,0.00
 002315,-0.00000659,-0.00000932,0.00000348,0.00001393,0.00005158,0.0000
 9650,0.00001792,-0.00027422,0.00051281,-0.00048802,0.00001051,-0.00001
 131,0.00000818,0.00001767,-0.00001209,-0.00000008,0.00000365,-0.000016
 76,0.00001564,0.00000052,-0.00000664,0.00001180,-0.00359572,-0.0005353
 0,-0.00098810,-0.00008709,-0.00012375,-0.00003739,0.00000473,-0.000013
 59,-0.00001473,-0.00000423,-0.00000745,0.00000320,0.00000036,-0.000002
 18,0.00000232,-0.00000130,-0.00000045,0.00000118,0.00000036,0.00000019
 ,-0.00000049,-0.00000113,-0.00000091,-0.00000045,0.00000111,-0.0000015
 2,-0.00000129,-0.00075587,-0.00100573,-0.00060829,-0.00226301,-0.00540
 213,0.00137008,0.02027356,-0.00900702,0.02049351,0.07898674,-0.1230956
 8,0.08962863,-0.01075240,0.01132290,-0.01130393,0.00000649,0.00000354,
 -0.00000060,-0.00000643,0.00000128,0.00000445,-0.00000151,0.00000191,-
 0.00001363,0.00000014,-0.00000048,-0.00000015,0.00000039,0.00000069,0.
 00000002,0.00000072,-0.00000063,-0.00000013,-0.00000032,-0.00000008,-0
 .00000025,0.00000070,0.00000046,-0.00000012,-0.00000043,-0.00000023,0.
 00000022,-0.00000293,0.00000128,-0.00001001,-0.00000179,-0.00000796,-0
 .00000654,-0.00000391,-0.00000338,-0.00000403,-0.00000305,-0.00000153,
 -0.00000163,0.00000255,0.00000148,-0.00001215,-0.00000510,0.00001295,-
 0.00005634,-0.00000749,0.00001097,0.00000215,-0.00000657,0.00000086,0.
 00000814,0.00001194,0.00001408,0.00000964,0.00000683,-0.00000137,0.000
 00601,-0.00000108,0.00000085,0.00000086,0.00000020,0.00000078,-0.00000
 021,0.00000032,0.00000028,0.00000016,-0.00000002,0.00000010,0.00000016
 ,-0.00000027,0.00000132,-0.00000034,0.00020328,0.00005133,-0.00013786,
 0.00097929,-0.00059000,0.00104167,0.00025475,0.00087053,-0.00100112,-0
 .08388228,0.12628179,-0.00000582,0.00000170,0.00000387,0.00004184,-0.0
 0002643,0.00002056,0.00004737,0.00001155,0.00000943,-0.00002247,-0.000
 00158,-0.00000304,-0.00004800,-0.00000781,-0.00000738,0.00002080,0.000
 00212,-0.00000536,-0.00000158,-0.00000066,0.00000051,-0.00002531,-0.00
 000128,0.00000146,-0.00018437,-0.00004001,0.00000902,0.00002199,0.0000
 7296,-0.00001979,0.00002301,0.00001749,-0.00002243,-0.00000243,0.00010
 206,-0.00001412,0.00007376,0.00067686,-0.00029776,-0.00004964,-0.00006
 761,0.00003460,0.00002284,0.00002388,-0.00002879,-0.00001759,-0.000021
 53,0.00004458,0.00002250,-0.00003753,0.00000887,-0.00488158,-0.0014329
 6,0.00362017,-0.00012325,-0.00012042,0.00002175,-0.00000131,-0.0000213
 2,0.00001119,0.00001319,-0.00001151,0.00000995,-0.00001030,-0.00000626
 ,-0.00000034,-0.00000203,0.00000009,-0.00000091,-0.00000483,-0.0000020
 8,0.00000066,0.00000107,-0.00000040,0.00000252,-0.00000823,-0.00000551
 ,-0.00000379,0.00049991,-0.00067016,-0.00019846,-0.00251650,0.00182472
 ,0.00501756,-0.00300487,0.00062656,0.00031216,-0.12000866,0.08957712,-
 0.16353220,-0.00814903,0.00841256,-0.00598340,-0.00000216,0.00000286,-
 0.00000215,0.00000278,0.00000046,-0.00000131,0.00000541,-0.00000324,0.
 00000224,-0.00000076,-0.00000087,-0.00000142,-0.00000163,-0.00000072,0
 .00000059,-0.00000164,0.00000022,0.00000140,0.00000121,-0.00000026,0.0
 0000029,-0.00000195,-0.00000075,0.00000020,0.00000051,0.00000122,-0.00
 000097,-0.00001092,0.00001192,-0.00001834,0.00000049,-0.00002140,-0.00
 000780,-0.00000431,-0.00000556,-0.00000263,-0.00000153,-0.00000493,0.0
 0000036,0.00000503,0.00001374,-0.00001997,0.00000298,0.00002241,-0.000
 05066,0.00000415,0.00000479,-0.00001614,-0.00001175,-0.00000320,0.0000
 1391,-0.00000575,0.00000687,-0.00001833,-0.00000134,-0.00000330,0.0000
 0529,0.00000310,0.00000214,-0.00000241,-0.00000228,0.00000009,0.000001
 36,-0.00000249,-0.00000023,-0.00000003,-0.00000177,-0.00000010,-0.0000
 0186,0.00000484,0.00000507,0.00000451,0.00054042,-0.00011903,-0.000706
 50,-0.00022296,-0.00001028,-0.00004222,0.00229699,-0.00041154,-0.00193
 508,0.13328306,-0.09755704,0.16567031,0.00001878,0.00001977,-0.0000154
 5,-0.00001669,0.00003177,-0.00002192,0.00002692,0.00002994,-0.00009698
 ,0.00000499,-0.00005625,0.00007061,0.00001062,-0.00001476,0.00002893,-
 0.00001180,0.00001738,-0.00000415,-0.00000165,0.00000055,0.00000446,0.
 00015133,-0.00025520,0.00006583,-0.00082972,-0.00017286,-0.00032263,-0
 .00013781,0.00022585,-0.00022123,-0.00062207,-0.00007485,-0.00026741,-
 0.00195196,-0.00051555,-0.00201577,-0.00088730,0.00048798,0.00242925,-
 0.00011951,-0.00070072,-0.00053699,-0.00005073,0.00025131,-0.00027768,
 -0.00005747,0.00001774,0.00013268,0.00005116,-0.00030213,0.00016289,0.
 00642473,0.01848399,-0.00271627,0.00039171,0.00007190,0.00013710,0.000
 02076,-0.00022179,-0.00008472,-0.00002803,-0.00008652,0.00004728,0.000
 03197,-0.00000272,-0.00000637,-0.00001255,0.00000131,0.00001232,0.0000
 1761,0.00000603,0.00000624,0.00000337,-0.00000819,0.00000588,0.0000484
 7,-0.00000604,-0.00002044,0.00048809,0.00101910,-0.00566110,-0.0011297
 2,0.00021608,-0.00033106,0.00016100,-0.00289389,-0.00571364,0.00192135
 ,-0.02265202,0.00423402,-0.05249589,-0.02648994,-0.00442851,-0.0000121
 3,-0.00000989,0.00000511,0.00000421,0.00000188,-0.00000521,0.00000286,
 -0.00001917,0.00002487,0.00000493,0.00000540,0.00001013,-0.00000285,0.
 00000429,0.00000389,0.00000009,-0.00000496,-0.00000074,-0.00000235,0.0
 0000127,-0.00000581,0.00000007,0.00000125,-0.00000118,0.00000174,-0.00
 000478,0.00000206,0.00002424,0.00003384,0.00023377,0.00000677,0.000058
 62,0.00004724,0.00001235,0.00002971,0.00002544,-0.00000354,0.00001103,
 -0.00001473,-0.00000447,0.00002212,0.00002061,-0.00000833,-0.00007562,
 0.00006849,0.00004741,-0.00004916,0.00009684,-0.00003551,-0.00001356,0
 .00005067,-0.00005547,0.00040625,0.00012813,0.00012225,0.00004943,-0.0
 0001744,-0.00001562,-0.00000655,0.00001775,0.00000444,0.00000584,-0.00
 000357,0.00000538,0.00000350,0.00000231,0.00000668,0.00000462,0.000005
 64,-0.00000355,0.00001987,0.00000049,0.00022428,0.00105595,-0.00026259
 ,-0.00040111,0.00013016,0.00059792,-0.00002673,-0.00106597,0.00016630,
 -0.00113198,0.00096541,0.00240178,0.04981597,-0.00000944,-0.00001577,0
 .00001473,-0.00000959,-0.00000267,-0.00000190,-0.00002488,-0.00002212,
 0.00009533,-0.00000007,0.00003597,-0.00007241,0.00000234,0.00000515,-0
 .00003020,0.00000035,-0.00000667,0.00000418,0.00000131,0.00000023,-0.0
 0000184,0.00004028,0.00010120,-0.00002757,0.00024611,0.00015259,0.0000
 7378,0.00011376,-0.00005069,0.00029704,-0.00021349,0.00033192,-0.00099
 071,-0.00246123,-0.00041771,-0.00220627,-0.00050508,-0.00123637,-0.001
 06969,-0.00130802,-0.00050376,-0.00129085,0.00021355,0.00025965,-0.000
 21776,0.00009434,-0.00012337,0.00043129,0.00009836,0.00006250,0.000124
 62,-0.00164299,-0.01084894,0.00229762,0.00000320,0.00001992,-0.0000501
 5,0.00019455,0.00032870,-0.00000690,0.00003350,-0.00000917,-0.00010223
 ,-0.00000036,0.00000035,0.00002647,0.00000378,0.00000258,-0.00001268,-
 0.00000634,-0.00000058,-0.00000561,-0.00000868,-0.00000035,-0.00001576
 ,-0.00002165,-0.00001053,0.00001065,0.00130128,0.00071874,0.00261647,0
 .00016186,0.00070101,-0.00025008,-0.00314534,0.00074683,-0.00098123,0.
 00003851,-0.01104787,0.00390203,-0.02570886,-0.33047284,0.05361117,0.0
 0000911,0.00000358,-0.00000364,-0.00000280,-0.00000106,0.00000267,-0.0
 0000031,0.00001652,-0.00001779,-0.00000418,-0.00000182,-0.00000372,0.0
 0000162,-0.00000024,-0.00000083,0.00000101,0.00000082,0.00000039,0.000
 00041,-0.00000078,0.00000174,0.00000061,-0.00000007,0.00000032,-0.0000
 0120,0.00000163,-0.00000070,0.00014030,0.00005995,0.00022966,0.0000131
 9,-0.00000127,0.00001678,0.00000179,0.00000221,-0.00000007,0.00001294,
 -0.00000334,0.00000476,0.00000461,-0.00000875,0.00000679,0.00002871,0.
 00008598,0.00002101,-0.00003373,0.00000741,-0.00002281,0.00004302,-0.0
 0002563,0.00000051,0.00001989,-0.00035587,-0.00000617,-0.00014233,-0.0
 0008707,-0.00002904,0.00001721,0.00000819,-0.00001598,0.00000014,-0.00
 000117,0.00000148,-0.00000232,-0.00000125,-0.00000223,-0.00000529,-0.0
 0000086,-0.00000233,0.00001097,-0.00000463,-0.00000801,-0.00026073,-0.
 00050108,0.00003233,0.00009917,-0.00011821,-0.00016563,0.00009175,-0.0
 0056311,0.00021014,0.00046341,0.00066478,-0.00080395,0.03201195,0.3521
 2723,0.00002144,0.00001717,-0.00002109,-0.00001130,-0.00001892,-0.0000
 1897,0.00005506,0.00002788,0.00004454,-0.00002904,-0.00001410,-0.00002
 760,-0.00005442,-0.00002466,-0.00002222,0.00001485,0.00001572,-0.00000
 656,-0.00000216,0.00000064,0.00000363,-0.00008665,-0.00006157,0.000018
 64,0.00042892,0.00022725,0.00027052,-0.00007276,0.00012672,0.00019444,
 -0.00022198,-0.00024893,0.00029568,-0.00175401,-0.00019043,-0.00135072
 ,0.00290060,0.00001936,-0.00139892,-0.00031991,-0.00057074,-0.00067768
 ,0.00010257,-0.00032494,0.00011387,-0.00003810,0.00004174,-0.00008025,
 -0.00005789,0.00005575,-0.00018766,0.00232357,0.01896293,0.00072899,-0
 .00032667,-0.00030791,-0.00016863,0.00008671,0.00002030,0.00012043,-0.
 00001461,-0.00009431,-0.00009309,0.00000210,-0.00000489,0.00004652,0.0
 0001787,0.00000880,-0.00000204,0.00001106,0.00000230,-0.00002625,-0.00
 003283,-0.00001563,-0.00001001,0.00001984,-0.00001317,0.00001104,-0.00
 580911,0.00249998,0.00102934,-0.00039790,-0.00028626,-0.00107861,-0.00
 552943,-0.00078738,0.00309115,-0.00171160,-0.01549300,0.00633636,-0.00
 449580,0.05223230,-0.05652388,-0.00001933,-0.00001103,0.00000488,0.000
 00736,-0.00000743,-0.00000475,0.00000415,-0.00002068,0.00002552,-0.000
 00298,0.00000531,-0.00001451,-0.00000318,0.00000445,0.00000474,-0.0000
 0072,-0.00000467,0.00000130,-0.00000101,-0.00000004,-0.00000439,-0.000
 00176,0.00000021,-0.00000081,0.00000123,-0.00000195,0.00000030,0.00004
 689,0.00003974,-0.00013976,-0.00000865,0.00001112,0.00000172,0.0000324
 1,0.00002842,-0.00000793,0.00003719,0.00003191,-0.00000181,-0.00000199
 ,0.00004970,0.00000751,-0.00005024,0.00007354,-0.00013607,0.00005097,-
 0.00004256,0.00008297,0.00003751,0.00004048,-0.00001325,0.00004796,-0.
 00023779,0.00008564,-0.00008127,-0.00004238,-0.00008932,0.00001164,0.0
 0000891,-0.00001197,0.00000439,0.00000415,-0.00000054,0.00000046,0.000
 00271,-0.00000236,-0.00000284,0.00000407,0.00000140,-0.00001182,0.0000
 1546,-0.00001399,0.00006730,0.00115718,0.00004948,0.00060497,-0.000137
 68,-0.00056972,-0.00009134,-0.00074669,0.00013204,0.00249762,-0.000409
 25,-0.00188374,0.01180666,-0.05561721,0.05188648\\-0.00000599,0.000003
 26,0.00001015,0.00002157,-0.00000313,0.00000847,-0.00002237,-0.0000112
 4,-0.00003462,-0.00000642,0.00001031,0.00000787,-0.00000165,0.00001343
 ,0.00004006,0.00004455,-0.00000345,-0.00002467,-0.00000748,0.00000249,
 -0.00000236,-0.00001426,-0.00002197,-0.00002967,0.00004942,0.00001254,
 0.00002023,0.00000025,-0.00002052,-0.00004073,0.00000592,0.00001929,-0
 .00000426,-0.00002109,-0.00000129,0.00000930,-0.00001241,0.00000348,0.
 00000600,-0.00000124,-0.00000821,0.00000082,-0.00000015,0.00000908,-0.
 00000286,-0.00000732,0.00000149,0.00000395,0.00000526,-0.00000353,-0.0
 0000180,-0.00000304,0.00000093,0.00000159,-0.00000035,-0.00000390,-0.0
 0000287,0.00000402,-0.00000926,-0.00001308,-0.00001729,-0.00001375,0.0
 0006759,0.00002218,0.00000977,-0.00002694,-0.00001984,-0.00000393,-0.0
 0001706,0.00001001,0.00000436,0.00002867,0.00002075,0.00001257,-0.0000
 1161,-0.00001550,-0.00001061,-0.00001710,-0.00000534,0.00000164,0.0000
 0286,-0.00000027,-0.00000660,0.00000001,-0.00000042,-0.00000202,-0.000
 00267,-0.00000228,0.00000370,-0.00000338,-0.00000376,0.00000035,0.0000
 0513,-0.00000241,-0.00000413,-0.00000315,0.00000121,0.00000119,0.00000
 005,0.00000151,0.00000248,-0.00000110,-0.00000753,0.00000109,0.0000029
 2,-0.00000449,-0.00000636,0.00000455,0.00000031,0.00000152,0.00000733,
 0.00000379,0.00000072,0.00000089,0.00000181,0.00000100,0.00000440,-0.0
 0000138,0.00000071,-0.00000240,-0.00000033,0.00000038,-0.00000062,-0.0
 0000078,-0.00000015,0.00000015,0.00000140,0.00000049,-0.00000175,-0.00
 000121,0.00000335,-0.00000035,0.00000098,-0.00000019,0.00000207,-0.000
 00081,0.00000022,-0.00000153,-0.00000060,0.00000432,0.00000236,-0.0000
 0053,-0.00000084,0.00000291,0.00001010,0.00000722,-0.00000204,-0.00000
 665,0.00000320,0.00000248,-0.00000126,-0.00000071,0.00000138,0.0000023
 3,-0.00000104,0.00000013,-0.00000344,0.00000209,0.00000031,-0.00000327
 ,0.00000057,0.00000291,-0.00000043,-0.00000320,0.00000407,-0.00000279,
 -0.00000041,-0.00000144,-0.00000070,-0.00000039,-0.00000026,-0.0000004
 7,-0.00000077,-0.00000069,0.00000066,-0.00000024,-0.00000126,-0.000000
 49,0.00000260,0.00000063\\\@
 The archive entry for this job was punched.


 IN THE LONG RUN, DIGGING FOR TRUTH HAS ALWAYS PROVED NOT ONLY 
 MORE INTERESTING BUT MORE PROFITABLE THAN DIGGING FOR GOLD.

                             -- GEORGE R. HARRISON
 Job cpu time:       9 days 16 hours 14 minutes 39.4 seconds.
 Elapsed time:       0 days 11 hours 37 minutes  6.9 seconds.
 File lengths (MBytes):  RWF=   5345 Int=      0 D2E=      0 Chk=    103 Scr=      1
 Normal termination of Gaussian 16 at Wed Jan  8 19:28:23 2025.
