 Entering Gaussian System, Link 0=g16
 Input=gjfs/data_set_12-nBA_dormant-31.gjf
 Output=gjfs/data_set_12-nBA_dormant-31.log
 Initial command:
 /usr/local/intel/g16/l1.exe "/scr/Gau-279402.inp" -scrdir="/scr/"
 Entering Link 1 = /usr/local/intel/g16/l1.exe PID=    279404.
  
 Copyright (c) 1988-2019, Gaussian, Inc.  All Rights Reserved.
  
 This is part of the Gaussian(R) 16 program.  It is based on
 the Gaussian(R) 09 system (copyright 2009, Gaussian, Inc.),
 the Gaussian(R) 03 system (copyright 2003, Gaussian, Inc.),
 the Gaussian(R) 98 system (copyright 1998, Gaussian, Inc.),
 the Gaussian(R) 94 system (copyright 1995, Gaussian, Inc.),
 the Gaussian 92(TM) system (copyright 1992, Gaussian, Inc.),
 the Gaussian 90(TM) system (copyright 1990, Gaussian, Inc.),
 the Gaussian 88(TM) system (copyright 1988, Gaussian, Inc.),
 the Gaussian 86(TM) system (copyright 1986, Carnegie Mellon
 University), and the Gaussian 82(TM) system (copyright 1983,
 Carnegie Mellon University). Gaussian is a federally registered
 trademark of Gaussian, Inc.
  
 This software contains proprietary and confidential information,
 including trade secrets, belonging to Gaussian, Inc.
  
 This software is provided under written license and may be
 used, copied, transmitted, or stored only in accord with that
 written license.
  
 The following legend is applicable only to US Government
 contracts under FAR:
  
                    RESTRICTED RIGHTS LEGEND
  
 Use, reproduction and disclosure by the US Government is
 subject to restrictions as set forth in subparagraphs (a)
 and (c) of the Commercial Computer Software - Restricted
 Rights clause in FAR 52.227-19.
  
 Gaussian, Inc.
 340 Quinnipiac St., Bldg. 40, Wallingford CT 06492
  
  
 ---------------------------------------------------------------
 Warning -- This program may not be used in any manner that
 competes with the business of Gaussian, Inc. or will provide
 assistance to any competitor of Gaussian, Inc.  The licensee
 of this program is prohibited from giving any competitor of
 Gaussian, Inc. access to this program.  By using this program,
 the user acknowledges that Gaussian, Inc. is engaged in the
 business of creating and licensing software in the field of
 computational chemistry and represents and warrants to the
 licensee that it is not a competitor of Gaussian, Inc. and that
 it will not use this program in any manner prohibited above.
 ---------------------------------------------------------------
  

 Cite this work as:
 Gaussian 16, Revision C.01,
 M. J. Frisch, G. W. Trucks, H. B. Schlegel, G. E. Scuseria, 
 M. A. Robb, J. R. Cheeseman, G. Scalmani, V. Barone, 
 G. A. Petersson, H. Nakatsuji, X. Li, M. Caricato, A. V. Marenich, 
 J. Bloino, B. G. Janesko, R. Gomperts, B. Mennucci, H. P. Hratchian, 
 J. V. Ortiz, A. F. Izmaylov, J. L. Sonnenberg, D. Williams-Young, 
 F. Ding, F. Lipparini, F. Egidi, J. Goings, B. Peng, A. Petrone, 
 T. Henderson, D. Ranasinghe, V. G. Zakrzewski, J. Gao, N. Rega, 
 G. Zheng, W. Liang, M. Hada, M. Ehara, K. Toyota, R. Fukuda, 
 J. Hasegawa, M. Ishida, T. Nakajima, Y. Honda, O. Kitao, H. Nakai, 
 T. Vreven, K. Throssell, J. A. Montgomery, Jr., J. E. Peralta, 
 F. Ogliaro, M. J. Bearpark, J. J. Heyd, E. N. Brothers, K. N. Kudin, 
 V. N. Staroverov, T. A. Keith, R. Kobayashi, J. Normand, 
 K. Raghavachari, A. P. Rendell, J. C. Burant, S. S. Iyengar, 
 J. Tomasi, M. Cossi, J. M. Millam, M. Klene, C. Adamo, R. Cammi, 
 J. W. Ochterski, R. L. Martin, K. Morokuma, O. Farkas, 
 J. B. Foresman, and D. J. Fox, Gaussian, Inc., Wallingford CT, 2019.
 
 ******************************************
 Gaussian 16:  ES64L-G16RevC.01  3-Jul-2019
                 7-Jan-2025 
 ******************************************
 %nprocshared=20
 Will use up to   20 processors via shared memory.
 %mem=30GB
 %chk=outputs/data_set_12-nBA_dormant-31.chk
 ----------------------------------
 #p M062X/DEF2TZVP opt freq pop=NBO
 ----------------------------------
 1/18=20,19=15,26=3,38=1/1,3;
 2/9=110,12=2,17=6,18=5,40=1/2;
 3/5=44,7=101,11=2,25=1,30=1,71=1,74=-55/1,2,3;
 4//1;
 5/5=2,38=5/2;
 6/7=2,8=2,9=2,10=2,28=1,40=1/1,7;
 7//1,2,3,16;
 1/18=20,19=15,26=3/3(2);
 2/9=110/2;
 99//99;
 2/9=110/2;
 3/5=44,7=101,11=2,25=1,30=1,71=1,74=-55/1,2,3;
 4/5=5,16=3,69=1/1;
 5/5=2,38=5/2;
 7//1,2,3,16;
 1/18=20,19=15,26=3/3(-5);
 2/9=110/2;
 6/7=2,8=2,9=2,10=2,19=2,28=1,40=1/1,7;
 99/9=1/99;
 Leave Link    1 at Tue Jan  7 22:20:53 2025, MaxMem=  4026531840 cpu:               1.0 elap:               0.1
 (Enter /usr/local/intel/g16/l101.exe)
 --------------------------
 data_set_12-nBA_dormant-31
 --------------------------
 Symbolic Z-matrix:
 Charge =  0 Multiplicity = 1
 C                    -0.8574   -2.85912  -1.28742 
 C                    -1.22733  -1.43495  -0.90069 
 C                    -2.65711  -1.32336  -0.3786 
 O                    -3.29128  -2.2182    0.18808 
 O                    -3.15037  -0.06867  -0.58977 
 C                    -4.46555   0.26188  -0.01373 
 C                    -4.62669   1.76963  -0.12577 
 O                    -0.48081  -0.87086   0.23327 
 N                     0.95949  -1.10369   0.21279 
 C                     1.28594  -1.68988   1.57489 
 C                     0.4496   -2.97034   1.76168 
 C                     2.77431  -2.09862   1.59438 
 C                     0.97667  -0.70291   2.72396 
 C                     1.69092   0.17011  -0.12857 
 C                     2.27489   0.1448   -1.5914 
 C                     3.11397   1.42716  -1.80434 
 C                     1.21098   0.06189  -2.70212 
 C                     3.20477  -1.08183  -1.72115 
 C                     1.00282   1.4885    0.23705 
 C                     1.7058    2.38581   1.06458 
 C                     1.18996   3.64662   1.39145 
 C                    -0.05836   4.04104   0.88956 
 C                    -0.77317   3.15798   0.06776 
 C                    -0.25192   1.89758  -0.2545 
 H                    -1.3248   -3.1133   -2.24468 
 H                    -1.20077  -3.57117  -0.53496 
 H                     0.22808  -2.93288  -1.38811 
 H                    -1.12693  -0.76162  -1.75687 
 H                    -4.48462  -0.08204   1.0243 
 H                    -5.23053  -0.2841   -0.5742 
 H                    -3.84703   2.27743   0.44827 
 H                    -5.60317   2.06865   0.26893 
 H                    -4.55993   2.0897   -1.16941 
 H                     0.67217  -3.6932    0.97068 
 H                    -0.62027  -2.75188   1.75151 
 H                     0.70006  -3.42762   2.72521 
 H                     2.97088  -2.6646    2.51113 
 H                     3.45664  -1.24256   1.59017 
 H                     3.0098   -2.7355    0.73657 
 H                     1.10252  -1.2063    3.68922 
 H                    -0.05323  -0.34401   2.6459 
 H                     1.6436    0.16454   2.70686 
 H                     2.59188   0.1371    0.49274 
 H                     3.65521   1.36154  -2.75562 
 H                     3.85433   1.55707  -1.00441 
 H                     2.48432   2.32228  -1.82858 
 H                     0.70903  -0.90961  -2.69046 
 H                     1.69764   0.16642  -3.67939 
 H                     0.46606   0.85953  -2.61812 
 H                     4.04307  -1.02161  -1.01544 
 H                     3.61975  -1.1363   -2.73466 
 H                     2.65079  -2.00356  -1.51868 
 H                     2.6784    2.09703   1.45659 
 H                     1.7584    4.31398   2.03117 
 H                    -0.46641   5.01615   1.13543 
 H                    -1.74171   3.44787  -0.32785 
 H                    -0.84849   1.23821  -0.86769 
 
 ITRead=  0  0  0  0  0  0  0  0  0  0  0  0  0  0  0  0  0  0  0  0
 ITRead=  0  0  0  0  0  0  0  0  0  0  0  0  0  0  0  0  0  0  0  0
 ITRead=  0  0  0  0  0  0  0  0  0  0  0  0  0  0  0  0  0
 MicOpt= -1 -1 -1 -1 -1 -1 -1 -1 -1 -1 -1 -1 -1 -1 -1 -1 -1 -1 -1 -1
 MicOpt= -1 -1 -1 -1 -1 -1 -1 -1 -1 -1 -1 -1 -1 -1 -1 -1 -1 -1 -1 -1
 MicOpt= -1 -1 -1 -1 -1 -1 -1 -1 -1 -1 -1 -1 -1 -1 -1 -1 -1
 NAtoms=     57 NQM=       57 NQMF=       0 NMMI=      0 NMMIF=      0
                NMic=       0 NMicF=      0.
                    Isotopes and Nuclear Properties:
 (Nuclear quadrupole moments (NQMom) in fm**2, nuclear magnetic moments (NMagM)
  in nuclear magnetons)

  Atom         1           2           3           4           5           6           7           8           9          10
 IAtWgt=          12          12          12          16          16          12          12          16          14          12
 AtmWgt=  12.0000000  12.0000000  12.0000000  15.9949146  15.9949146  12.0000000  12.0000000  15.9949146  14.0030740  12.0000000
 NucSpn=           0           0           0           0           0           0           0           0           2           0
 AtZEff=  -0.0000000  -0.0000000  -0.0000000  -0.0000000  -0.0000000  -0.0000000  -0.0000000  -0.0000000  -0.0000000  -0.0000000
 NQMom=    0.0000000   0.0000000   0.0000000   0.0000000   0.0000000   0.0000000   0.0000000   0.0000000   2.0440000   0.0000000
 NMagM=    0.0000000   0.0000000   0.0000000   0.0000000   0.0000000   0.0000000   0.0000000   0.0000000   0.4037610   0.0000000
 AtZNuc=   6.0000000   6.0000000   6.0000000   8.0000000   8.0000000   6.0000000   6.0000000   8.0000000   7.0000000   6.0000000

  Atom        11          12          13          14          15          16          17          18          19          20
 IAtWgt=          12          12          12          12          12          12          12          12          12          12
 AtmWgt=  12.0000000  12.0000000  12.0000000  12.0000000  12.0000000  12.0000000  12.0000000  12.0000000  12.0000000  12.0000000
 NucSpn=           0           0           0           0           0           0           0           0           0           0
 AtZEff=  -0.0000000  -0.0000000  -0.0000000  -0.0000000  -0.0000000  -0.0000000  -0.0000000  -0.0000000  -0.0000000  -0.0000000
 NQMom=    0.0000000   0.0000000   0.0000000   0.0000000   0.0000000   0.0000000   0.0000000   0.0000000   0.0000000   0.0000000
 NMagM=    0.0000000   0.0000000   0.0000000   0.0000000   0.0000000   0.0000000   0.0000000   0.0000000   0.0000000   0.0000000
 AtZNuc=   6.0000000   6.0000000   6.0000000   6.0000000   6.0000000   6.0000000   6.0000000   6.0000000   6.0000000   6.0000000

  Atom        21          22          23          24          25          26          27          28          29          30
 IAtWgt=          12          12          12          12           1           1           1           1           1           1
 AtmWgt=  12.0000000  12.0000000  12.0000000  12.0000000   1.0078250   1.0078250   1.0078250   1.0078250   1.0078250   1.0078250
 NucSpn=           0           0           0           0           1           1           1           1           1           1
 AtZEff=  -0.0000000  -0.0000000  -0.0000000  -0.0000000  -0.0000000  -0.0000000  -0.0000000  -0.0000000  -0.0000000  -0.0000000
 NQMom=    0.0000000   0.0000000   0.0000000   0.0000000   0.0000000   0.0000000   0.0000000   0.0000000   0.0000000   0.0000000
 NMagM=    0.0000000   0.0000000   0.0000000   0.0000000   2.7928460   2.7928460   2.7928460   2.7928460   2.7928460   2.7928460
 AtZNuc=   6.0000000   6.0000000   6.0000000   6.0000000   1.0000000   1.0000000   1.0000000   1.0000000   1.0000000   1.0000000

  Atom        31          32          33          34          35          36          37          38          39          40
 IAtWgt=           1           1           1           1           1           1           1           1           1           1
 AtmWgt=   1.0078250   1.0078250   1.0078250   1.0078250   1.0078250   1.0078250   1.0078250   1.0078250   1.0078250   1.0078250
 NucSpn=           1           1           1           1           1           1           1           1           1           1
 AtZEff=  -0.0000000  -0.0000000  -0.0000000  -0.0000000  -0.0000000  -0.0000000  -0.0000000  -0.0000000  -0.0000000  -0.0000000
 NQMom=    0.0000000   0.0000000   0.0000000   0.0000000   0.0000000   0.0000000   0.0000000   0.0000000   0.0000000   0.0000000
 NMagM=    2.7928460   2.7928460   2.7928460   2.7928460   2.7928460   2.7928460   2.7928460   2.7928460   2.7928460   2.7928460
 AtZNuc=   1.0000000   1.0000000   1.0000000   1.0000000   1.0000000   1.0000000   1.0000000   1.0000000   1.0000000   1.0000000

  Atom        41          42          43          44          45          46          47          48          49          50
 IAtWgt=           1           1           1           1           1           1           1           1           1           1
 AtmWgt=   1.0078250   1.0078250   1.0078250   1.0078250   1.0078250   1.0078250   1.0078250   1.0078250   1.0078250   1.0078250
 NucSpn=           1           1           1           1           1           1           1           1           1           1
 AtZEff=  -0.0000000  -0.0000000  -0.0000000  -0.0000000  -0.0000000  -0.0000000  -0.0000000  -0.0000000  -0.0000000  -0.0000000
 NQMom=    0.0000000   0.0000000   0.0000000   0.0000000   0.0000000   0.0000000   0.0000000   0.0000000   0.0000000   0.0000000
 NMagM=    2.7928460   2.7928460   2.7928460   2.7928460   2.7928460   2.7928460   2.7928460   2.7928460   2.7928460   2.7928460
 AtZNuc=   1.0000000   1.0000000   1.0000000   1.0000000   1.0000000   1.0000000   1.0000000   1.0000000   1.0000000   1.0000000

  Atom        51          52          53          54          55          56          57
 IAtWgt=           1           1           1           1           1           1           1
 AtmWgt=   1.0078250   1.0078250   1.0078250   1.0078250   1.0078250   1.0078250   1.0078250
 NucSpn=           1           1           1           1           1           1           1
 AtZEff=  -0.0000000  -0.0000000  -0.0000000  -0.0000000  -0.0000000  -0.0000000  -0.0000000
 NQMom=    0.0000000   0.0000000   0.0000000   0.0000000   0.0000000   0.0000000   0.0000000
 NMagM=    2.7928460   2.7928460   2.7928460   2.7928460   2.7928460   2.7928460   2.7928460
 AtZNuc=   1.0000000   1.0000000   1.0000000   1.0000000   1.0000000   1.0000000   1.0000000
 Leave Link  101 at Tue Jan  7 22:20:54 2025, MaxMem=  4026531840 cpu:              23.6 elap:               1.2
 (Enter /usr/local/intel/g16/l103.exe)

 GradGradGradGradGradGradGradGradGradGradGradGradGradGradGradGradGradGrad
 Berny optimization.
 Initialization pass.
                           ----------------------------
                           !    Initial Parameters    !
                           ! (Angstroms and Degrees)  !
 --------------------------                            --------------------------
 ! Name  Definition              Value          Derivative Info.                !
 --------------------------------------------------------------------------------
 ! R1    R(1,2)                  1.5214         estimate D2E/DX2                !
 ! R2    R(1,25)                 1.0952         estimate D2E/DX2                !
 ! R3    R(1,26)                 1.0914         estimate D2E/DX2                !
 ! R4    R(1,27)                 1.0926         estimate D2E/DX2                !
 ! R5    R(2,3)                  1.5262         estimate D2E/DX2                !
 ! R6    R(2,8)                  1.4702         estimate D2E/DX2                !
 ! R7    R(2,28)                 1.0938         estimate D2E/DX2                !
 ! R8    R(3,4)                  1.2345         estimate D2E/DX2                !
 ! R9    R(3,5)                  1.3646         estimate D2E/DX2                !
 ! R10   R(5,6)                  1.4734         estimate D2E/DX2                !
 ! R11   R(6,7)                  1.5205         estimate D2E/DX2                !
 ! R12   R(6,29)                 1.0937         estimate D2E/DX2                !
 ! R13   R(6,30)                 1.0943         estimate D2E/DX2                !
 ! R14   R(7,31)                 1.0933         estimate D2E/DX2                !
 ! R15   R(7,32)                 1.0949         estimate D2E/DX2                !
 ! R16   R(7,33)                 1.0937         estimate D2E/DX2                !
 ! R17   R(8,9)                  1.4591         estimate D2E/DX2                !
 ! R18   R(9,10)                 1.5184         estimate D2E/DX2                !
 ! R19   R(9,14)                 1.508          estimate D2E/DX2                !
 ! R20   R(10,11)                1.5408         estimate D2E/DX2                !
 ! R21   R(10,12)                1.5436         estimate D2E/DX2                !
 ! R22   R(10,13)                1.546          estimate D2E/DX2                !
 ! R23   R(11,34)                1.0944         estimate D2E/DX2                !
 ! R24   R(11,35)                1.092          estimate D2E/DX2                !
 ! R25   R(11,36)                1.0955         estimate D2E/DX2                !
 ! R26   R(12,37)                1.0952         estimate D2E/DX2                !
 ! R27   R(12,38)                1.0947         estimate D2E/DX2                !
 ! R28   R(12,39)                1.094          estimate D2E/DX2                !
 ! R29   R(13,40)                1.0959         estimate D2E/DX2                !
 ! R30   R(13,41)                1.0934         estimate D2E/DX2                !
 ! R31   R(13,42)                1.0943         estimate D2E/DX2                !
 ! R32   R(14,15)                1.5753         estimate D2E/DX2                !
 ! R33   R(14,19)                1.5314         estimate D2E/DX2                !
 ! R34   R(14,43)                1.0949         estimate D2E/DX2                !
 ! R35   R(15,16)                1.5472         estimate D2E/DX2                !
 ! R36   R(15,17)                1.5403         estimate D2E/DX2                !
 ! R37   R(15,18)                1.5447         estimate D2E/DX2                !
 ! R38   R(16,44)                1.0964         estimate D2E/DX2                !
 ! R39   R(16,45)                1.0977         estimate D2E/DX2                !
 ! R40   R(16,46)                1.0947         estimate D2E/DX2                !
 ! R41   R(17,47)                1.0936         estimate D2E/DX2                !
 ! R42   R(17,48)                1.0967         estimate D2E/DX2                !
 ! R43   R(17,49)                1.0946         estimate D2E/DX2                !
 ! R44   R(18,50)                1.0974         estimate D2E/DX2                !
 ! R45   R(18,51)                1.0965         estimate D2E/DX2                !
 ! R46   R(18,52)                1.0943         estimate D2E/DX2                !
 ! R47   R(19,20)                1.4086         estimate D2E/DX2                !
 ! R48   R(19,24)                1.4083         estimate D2E/DX2                !
 ! R49   R(20,21)                1.4009         estimate D2E/DX2                !
 ! R50   R(20,53)                1.0877         estimate D2E/DX2                !
 ! R51   R(21,22)                1.4021         estimate D2E/DX2                !
 ! R52   R(21,54)                1.0852         estimate D2E/DX2                !
 ! R53   R(22,23)                1.4022         estimate D2E/DX2                !
 ! R54   R(22,55)                1.0853         estimate D2E/DX2                !
 ! R55   R(23,24)                1.4015         estimate D2E/DX2                !
 ! R56   R(23,56)                1.0856         estimate D2E/DX2                !
 ! R57   R(24,57)                1.0801         estimate D2E/DX2                !
 ! A1    A(2,1,25)             109.6141         estimate D2E/DX2                !
 ! A2    A(2,1,26)             111.037          estimate D2E/DX2                !
 ! A3    A(2,1,27)             109.1583         estimate D2E/DX2                !
 ! A4    A(25,1,26)            108.4777         estimate D2E/DX2                !
 ! A5    A(25,1,27)            109.1333         estimate D2E/DX2                !
 ! A6    A(26,1,27)            109.3929         estimate D2E/DX2                !
 ! A7    A(1,2,3)              112.5314         estimate D2E/DX2                !
 ! A8    A(1,2,8)              115.5804         estimate D2E/DX2                !
 ! A9    A(1,2,28)             110.7893         estimate D2E/DX2                !
 ! A10   A(3,2,8)              100.5907         estimate D2E/DX2                !
 ! A11   A(3,2,28)             107.9829         estimate D2E/DX2                !
 ! A12   A(8,2,28)             108.7195         estimate D2E/DX2                !
 ! A13   A(2,3,4)              125.822          estimate D2E/DX2                !
 ! A14   A(2,3,5)              110.6664         estimate D2E/DX2                !
 ! A15   A(4,3,5)              123.4912         estimate D2E/DX2                !
 ! A16   A(3,5,6)              117.933          estimate D2E/DX2                !
 ! A17   A(5,6,7)              106.754          estimate D2E/DX2                !
 ! A18   A(5,6,29)             108.4267         estimate D2E/DX2                !
 ! A19   A(5,6,30)             108.1703         estimate D2E/DX2                !
 ! A20   A(7,6,29)             112.3285         estimate D2E/DX2                !
 ! A21   A(7,6,30)             112.5157         estimate D2E/DX2                !
 ! A22   A(29,6,30)            108.4842         estimate D2E/DX2                !
 ! A23   A(6,7,31)             110.2621         estimate D2E/DX2                !
 ! A24   A(6,7,32)             109.8026         estimate D2E/DX2                !
 ! A25   A(6,7,33)             110.736          estimate D2E/DX2                !
 ! A26   A(31,7,32)            108.6563         estimate D2E/DX2                !
 ! A27   A(31,7,33)            108.7588         estimate D2E/DX2                !
 ! A28   A(32,7,33)            108.5746         estimate D2E/DX2                !
 ! A29   A(2,8,9)              115.4151         estimate D2E/DX2                !
 ! A30   A(8,9,10)             105.1431         estimate D2E/DX2                !
 ! A31   A(8,9,14)             110.3137         estimate D2E/DX2                !
 ! A32   A(10,9,14)            115.1437         estimate D2E/DX2                !
 ! A33   A(9,10,11)            108.2338         estimate D2E/DX2                !
 ! A34   A(9,10,12)            108.715          estimate D2E/DX2                !
 ! A35   A(9,10,13)            112.165          estimate D2E/DX2                !
 ! A36   A(11,10,12)           107.5657         estimate D2E/DX2                !
 ! A37   A(11,10,13)           109.3815         estimate D2E/DX2                !
 ! A38   A(12,10,13)           110.643          estimate D2E/DX2                !
 ! A39   A(10,11,34)           110.5424         estimate D2E/DX2                !
 ! A40   A(10,11,35)           111.372          estimate D2E/DX2                !
 ! A41   A(10,11,36)           109.2327         estimate D2E/DX2                !
 ! A42   A(34,11,35)           108.9444         estimate D2E/DX2                !
 ! A43   A(34,11,36)           108.2694         estimate D2E/DX2                !
 ! A44   A(35,11,36)           108.4023         estimate D2E/DX2                !
 ! A45   A(10,12,37)           108.6922         estimate D2E/DX2                !
 ! A46   A(10,12,38)           113.1959         estimate D2E/DX2                !
 ! A47   A(10,12,39)           110.5973         estimate D2E/DX2                !
 ! A48   A(37,12,38)           107.1858         estimate D2E/DX2                !
 ! A49   A(37,12,39)           108.4725         estimate D2E/DX2                !
 ! A50   A(38,12,39)           108.5447         estimate D2E/DX2                !
 ! A51   A(10,13,40)           109.7818         estimate D2E/DX2                !
 ! A52   A(10,13,41)           110.1758         estimate D2E/DX2                !
 ! A53   A(10,13,42)           111.8711         estimate D2E/DX2                !
 ! A54   A(40,13,41)           108.773          estimate D2E/DX2                !
 ! A55   A(40,13,42)           107.9323         estimate D2E/DX2                !
 ! A56   A(41,13,42)           108.2236         estimate D2E/DX2                !
 ! A57   A(9,14,15)            112.1129         estimate D2E/DX2                !
 ! A58   A(9,14,19)            117.0784         estimate D2E/DX2                !
 ! A59   A(9,14,43)            104.1932         estimate D2E/DX2                !
 ! A60   A(15,14,19)           113.7091         estimate D2E/DX2                !
 ! A61   A(15,14,43)           102.7919         estimate D2E/DX2                !
 ! A62   A(19,14,43)           105.0826         estimate D2E/DX2                !
 ! A63   A(14,15,16)           108.3925         estimate D2E/DX2                !
 ! A64   A(14,15,17)           114.4843         estimate D2E/DX2                !
 ! A65   A(14,15,18)           108.2952         estimate D2E/DX2                !
 ! A66   A(16,15,17)           108.6608         estimate D2E/DX2                !
 ! A67   A(16,15,18)           108.6706         estimate D2E/DX2                !
 ! A68   A(17,15,18)           108.2093         estimate D2E/DX2                !
 ! A69   A(15,16,44)           109.7254         estimate D2E/DX2                !
 ! A70   A(15,16,45)           111.3208         estimate D2E/DX2                !
 ! A71   A(15,16,46)           111.6445         estimate D2E/DX2                !
 ! A72   A(44,16,45)           107.8421         estimate D2E/DX2                !
 ! A73   A(44,16,46)           108.2803         estimate D2E/DX2                !
 ! A74   A(45,16,46)           107.8974         estimate D2E/DX2                !
 ! A75   A(15,17,47)           110.9269         estimate D2E/DX2                !
 ! A76   A(15,17,48)           109.3256         estimate D2E/DX2                !
 ! A77   A(15,17,49)           112.0549         estimate D2E/DX2                !
 ! A78   A(47,17,48)           107.3285         estimate D2E/DX2                !
 ! A79   A(47,17,49)           109.5216         estimate D2E/DX2                !
 ! A80   A(48,17,49)           107.512          estimate D2E/DX2                !
 ! A81   A(15,18,50)           111.2381         estimate D2E/DX2                !
 ! A82   A(15,18,51)           110.1753         estimate D2E/DX2                !
 ! A83   A(15,18,52)           110.3998         estimate D2E/DX2                !
 ! A84   A(50,18,51)           107.9389         estimate D2E/DX2                !
 ! A85   A(50,18,52)           108.2975         estimate D2E/DX2                !
 ! A86   A(51,18,52)           108.7089         estimate D2E/DX2                !
 ! A87   A(14,19,20)           117.6727         estimate D2E/DX2                !
 ! A88   A(14,19,24)           124.5452         estimate D2E/DX2                !
 ! A89   A(20,19,24)           117.6879         estimate D2E/DX2                !
 ! A90   A(19,20,21)           121.7779         estimate D2E/DX2                !
 ! A91   A(19,20,53)           119.2664         estimate D2E/DX2                !
 ! A92   A(21,20,53)           118.9545         estimate D2E/DX2                !
 ! A93   A(20,21,22)           119.8346         estimate D2E/DX2                !
 ! A94   A(20,21,54)           119.8755         estimate D2E/DX2                !
 ! A95   A(22,21,54)           120.2899         estimate D2E/DX2                !
 ! A96   A(21,22,23)           119.1119         estimate D2E/DX2                !
 ! A97   A(21,22,55)           120.4266         estimate D2E/DX2                !
 ! A98   A(23,22,55)           120.4615         estimate D2E/DX2                !
 ! A99   A(22,23,24)           120.7667         estimate D2E/DX2                !
 ! A100  A(22,23,56)           120.0131         estimate D2E/DX2                !
 ! A101  A(24,23,56)           119.2202         estimate D2E/DX2                !
 ! A102  A(19,24,23)           120.8202         estimate D2E/DX2                !
 ! A103  A(19,24,57)           120.858          estimate D2E/DX2                !
 ! A104  A(23,24,57)           118.3022         estimate D2E/DX2                !
 ! D1    D(25,1,2,3)            75.8656         estimate D2E/DX2                !
 ! D2    D(25,1,2,8)          -169.3507         estimate D2E/DX2                !
 ! D3    D(25,1,2,28)          -45.1335         estimate D2E/DX2                !
 ! D4    D(26,1,2,3)           -43.9719         estimate D2E/DX2                !
 ! D5    D(26,1,2,8)            70.8118         estimate D2E/DX2                !
 ! D6    D(26,1,2,28)         -164.9711         estimate D2E/DX2                !
 ! D7    D(27,1,2,3)          -164.6514         estimate D2E/DX2                !
 ! D8    D(27,1,2,8)           -49.8676         estimate D2E/DX2                !
 ! D9    D(27,1,2,28)           74.3495         estimate D2E/DX2                !
 ! D10   D(1,2,3,4)             28.0133         estimate D2E/DX2                !
 ! D11   D(1,2,3,5)           -153.5855         estimate D2E/DX2                !
 ! D12   D(8,2,3,4)            -95.5686         estimate D2E/DX2                !
 ! D13   D(8,2,3,5)             82.8326         estimate D2E/DX2                !
 ! D14   D(28,2,3,4)           150.6056         estimate D2E/DX2                !
 ! D15   D(28,2,3,5)           -30.9932         estimate D2E/DX2                !
 ! D16   D(1,2,8,9)             44.7828         estimate D2E/DX2                !
 ! D17   D(3,2,8,9)            166.2291         estimate D2E/DX2                !
 ! D18   D(28,2,8,9)           -80.5058         estimate D2E/DX2                !
 ! D19   D(2,3,5,6)           -173.3425         estimate D2E/DX2                !
 ! D20   D(4,3,5,6)              5.1031         estimate D2E/DX2                !
 ! D21   D(3,5,6,7)            167.6575         estimate D2E/DX2                !
 ! D22   D(3,5,6,29)            46.4259         estimate D2E/DX2                !
 ! D23   D(3,5,6,30)           -71.03           estimate D2E/DX2                !
 ! D24   D(5,6,7,31)           -61.6238         estimate D2E/DX2                !
 ! D25   D(5,6,7,32)           178.6835         estimate D2E/DX2                !
 ! D26   D(5,6,7,33)            58.794          estimate D2E/DX2                !
 ! D27   D(29,6,7,31)           57.0944         estimate D2E/DX2                !
 ! D28   D(29,6,7,32)          -62.5983         estimate D2E/DX2                !
 ! D29   D(29,6,7,33)          177.5122         estimate D2E/DX2                !
 ! D30   D(30,6,7,31)          179.8649         estimate D2E/DX2                !
 ! D31   D(30,6,7,32)           60.1723         estimate D2E/DX2                !
 ! D32   D(30,6,7,33)          -59.7173         estimate D2E/DX2                !
 ! D33   D(2,8,9,10)          -128.3412         estimate D2E/DX2                !
 ! D34   D(2,8,9,14)           106.9401         estimate D2E/DX2                !
 ! D35   D(8,9,10,11)           57.9411         estimate D2E/DX2                !
 ! D36   D(8,9,10,12)          174.4987         estimate D2E/DX2                !
 ! D37   D(8,9,10,13)          -62.822          estimate D2E/DX2                !
 ! D38   D(14,9,10,11)         179.5633         estimate D2E/DX2                !
 ! D39   D(14,9,10,12)         -63.879          estimate D2E/DX2                !
 ! D40   D(14,9,10,13)          58.8003         estimate D2E/DX2                !
 ! D41   D(8,9,14,15)         -106.7806         estimate D2E/DX2                !
 ! D42   D(8,9,14,19)           27.2611         estimate D2E/DX2                !
 ! D43   D(8,9,14,43)          142.7762         estimate D2E/DX2                !
 ! D44   D(10,9,14,15)         134.4384         estimate D2E/DX2                !
 ! D45   D(10,9,14,19)         -91.5199         estimate D2E/DX2                !
 ! D46   D(10,9,14,43)          23.9952         estimate D2E/DX2                !
 ! D47   D(9,10,11,34)          58.8969         estimate D2E/DX2                !
 ! D48   D(9,10,11,35)         -62.3644         estimate D2E/DX2                !
 ! D49   D(9,10,11,36)         177.9287         estimate D2E/DX2                !
 ! D50   D(12,10,11,34)        -58.4021         estimate D2E/DX2                !
 ! D51   D(12,10,11,35)       -179.6634         estimate D2E/DX2                !
 ! D52   D(12,10,11,36)         60.6297         estimate D2E/DX2                !
 ! D53   D(13,10,11,34)       -178.625          estimate D2E/DX2                !
 ! D54   D(13,10,11,35)         60.1138         estimate D2E/DX2                !
 ! D55   D(13,10,11,36)        -59.5931         estimate D2E/DX2                !
 ! D56   D(9,10,12,37)        -171.0288         estimate D2E/DX2                !
 ! D57   D(9,10,12,38)          70.0022         estimate D2E/DX2                !
 ! D58   D(9,10,12,39)         -52.0499         estimate D2E/DX2                !
 ! D59   D(11,10,12,37)        -54.0434         estimate D2E/DX2                !
 ! D60   D(11,10,12,38)       -173.0124         estimate D2E/DX2                !
 ! D61   D(11,10,12,39)         64.9355         estimate D2E/DX2                !
 ! D62   D(13,10,12,37)         65.3779         estimate D2E/DX2                !
 ! D63   D(13,10,12,38)        -53.5911         estimate D2E/DX2                !
 ! D64   D(13,10,12,39)       -175.6432         estimate D2E/DX2                !
 ! D65   D(9,10,13,40)         172.7495         estimate D2E/DX2                !
 ! D66   D(9,10,13,41)          52.9796         estimate D2E/DX2                !
 ! D67   D(9,10,13,42)         -67.4519         estimate D2E/DX2                !
 ! D68   D(11,10,13,40)         52.6519         estimate D2E/DX2                !
 ! D69   D(11,10,13,41)        -67.1179         estimate D2E/DX2                !
 ! D70   D(11,10,13,42)        172.4505         estimate D2E/DX2                !
 ! D71   D(12,10,13,40)        -65.6691         estimate D2E/DX2                !
 ! D72   D(12,10,13,41)        174.561          estimate D2E/DX2                !
 ! D73   D(12,10,13,42)         54.1295         estimate D2E/DX2                !
 ! D74   D(9,14,15,16)        -174.8153         estimate D2E/DX2                !
 ! D75   D(9,14,15,17)          63.7229         estimate D2E/DX2                !
 ! D76   D(9,14,15,18)         -57.0884         estimate D2E/DX2                !
 ! D77   D(19,14,15,16)         49.5347         estimate D2E/DX2                !
 ! D78   D(19,14,15,17)        -71.9272         estimate D2E/DX2                !
 ! D79   D(19,14,15,18)        167.2615         estimate D2E/DX2                !
 ! D80   D(43,14,15,16)        -63.4908         estimate D2E/DX2                !
 ! D81   D(43,14,15,17)        175.0473         estimate D2E/DX2                !
 ! D82   D(43,14,15,18)         54.2361         estimate D2E/DX2                !
 ! D83   D(9,14,19,20)         123.5465         estimate D2E/DX2                !
 ! D84   D(9,14,19,24)         -60.0723         estimate D2E/DX2                !
 ! D85   D(15,14,19,20)       -103.1181         estimate D2E/DX2                !
 ! D86   D(15,14,19,24)         73.2631         estimate D2E/DX2                !
 ! D87   D(43,14,19,20)          8.5235         estimate D2E/DX2                !
 ! D88   D(43,14,19,24)       -175.0953         estimate D2E/DX2                !
 ! D89   D(14,15,16,44)        171.3738         estimate D2E/DX2                !
 ! D90   D(14,15,16,45)         52.0758         estimate D2E/DX2                !
 ! D91   D(14,15,16,46)        -68.5746         estimate D2E/DX2                !
 ! D92   D(17,15,16,44)        -63.6467         estimate D2E/DX2                !
 ! D93   D(17,15,16,45)        177.0554         estimate D2E/DX2                !
 ! D94   D(17,15,16,46)         56.4049         estimate D2E/DX2                !
 ! D95   D(18,15,16,44)         53.8868         estimate D2E/DX2                !
 ! D96   D(18,15,16,45)        -65.4111         estimate D2E/DX2                !
 ! D97   D(18,15,16,46)        173.9385         estimate D2E/DX2                !
 ! D98   D(14,15,17,47)        -68.3354         estimate D2E/DX2                !
 ! D99   D(14,15,17,48)        173.4983         estimate D2E/DX2                !
 ! D100  D(14,15,17,49)         54.4118         estimate D2E/DX2                !
 ! D101  D(16,15,17,47)        170.3501         estimate D2E/DX2                !
 ! D102  D(16,15,17,48)         52.1839         estimate D2E/DX2                !
 ! D103  D(16,15,17,49)        -66.9027         estimate D2E/DX2                !
 ! D104  D(18,15,17,47)         52.5233         estimate D2E/DX2                !
 ! D105  D(18,15,17,48)        -65.6429         estimate D2E/DX2                !
 ! D106  D(18,15,17,49)        175.2705         estimate D2E/DX2                !
 ! D107  D(14,15,18,50)        -61.0354         estimate D2E/DX2                !
 ! D108  D(14,15,18,51)        179.3049         estimate D2E/DX2                !
 ! D109  D(14,15,18,52)         59.2228         estimate D2E/DX2                !
 ! D110  D(16,15,18,50)         56.5134         estimate D2E/DX2                !
 ! D111  D(16,15,18,51)        -63.1463         estimate D2E/DX2                !
 ! D112  D(16,15,18,52)        176.7716         estimate D2E/DX2                !
 ! D113  D(17,15,18,50)        174.3339         estimate D2E/DX2                !
 ! D114  D(17,15,18,51)         54.6742         estimate D2E/DX2                !
 ! D115  D(17,15,18,52)        -65.4079         estimate D2E/DX2                !
 ! D116  D(14,19,20,21)        176.38           estimate D2E/DX2                !
 ! D117  D(14,19,20,53)         -3.2252         estimate D2E/DX2                !
 ! D118  D(24,19,20,21)         -0.2542         estimate D2E/DX2                !
 ! D119  D(24,19,20,53)       -179.8593         estimate D2E/DX2                !
 ! D120  D(14,19,24,23)       -176.0745         estimate D2E/DX2                !
 ! D121  D(14,19,24,57)          5.5605         estimate D2E/DX2                !
 ! D122  D(20,19,24,23)          0.3062         estimate D2E/DX2                !
 ! D123  D(20,19,24,57)       -178.0588         estimate D2E/DX2                !
 ! D124  D(19,20,21,22)          0.0038         estimate D2E/DX2                !
 ! D125  D(19,20,21,54)       -179.9461         estimate D2E/DX2                !
 ! D126  D(53,20,21,22)        179.6101         estimate D2E/DX2                !
 ! D127  D(53,20,21,54)         -0.3397         estimate D2E/DX2                !
 ! D128  D(20,21,22,23)          0.1984         estimate D2E/DX2                !
 ! D129  D(20,21,22,55)       -179.9076         estimate D2E/DX2                !
 ! D130  D(54,21,22,23)       -179.852          estimate D2E/DX2                !
 ! D131  D(54,21,22,55)          0.042          estimate D2E/DX2                !
 ! D132  D(21,22,23,24)         -0.1459         estimate D2E/DX2                !
 ! D133  D(21,22,23,56)        179.9227         estimate D2E/DX2                !
 ! D134  D(55,22,23,24)        179.9602         estimate D2E/DX2                !
 ! D135  D(55,22,23,56)          0.0287         estimate D2E/DX2                !
 ! D136  D(22,23,24,19)         -0.1117         estimate D2E/DX2                !
 ! D137  D(22,23,24,57)        178.2942         estimate D2E/DX2                !
 ! D138  D(56,23,24,19)        179.8203         estimate D2E/DX2                !
 ! D139  D(56,23,24,57)         -1.7738         estimate D2E/DX2                !
 --------------------------------------------------------------------------------
 Trust Radius=3.00D-01 FncErr=1.00D-07 GrdErr=1.00D-06 EigMax=2.50D+02 EigMin=1.00D-04
 Number of steps in this run=    310 maximum allowed number of steps=    342.
 GradGradGradGradGradGradGradGradGradGradGradGradGradGradGradGradGradGrad

 Leave Link  103 at Tue Jan  7 22:20:55 2025, MaxMem=  4026531840 cpu:               0.4 elap:               0.0
 (Enter /usr/local/intel/g16/l202.exe)
 Stoichiometry    C20H33NO3
 Framework group  C1[X(C20H33NO3)]
 Deg. of freedom   165
 Full point group                 C1      NOp   1
 Largest Abelian subgroup         C1      NOp   1
 Largest concise Abelian subgroup C1      NOp   1
                         Standard orientation:                         
 ---------------------------------------------------------------------
 Center     Atomic      Atomic             Coordinates (Angstroms)
 Number     Number       Type             X           Y           Z
 ---------------------------------------------------------------------
      1          6           0        0.857403   -2.859115    1.287424
      2          6           0        1.227328   -1.434952    0.900686
      3          6           0        2.657106   -1.323357    0.378601
      4          8           0        3.291278   -2.218196   -0.188084
      5          8           0        3.150368   -0.068669    0.589767
      6          6           0        4.465553    0.261876    0.013728
      7          6           0        4.626694    1.769632    0.125774
      8          8           0        0.480808   -0.870857   -0.233274
      9          7           0       -0.959490   -1.103686   -0.212791
     10          6           0       -1.285938   -1.689883   -1.574888
     11          6           0       -0.449599   -2.970340   -1.761681
     12          6           0       -2.774305   -2.098619   -1.594382
     13          6           0       -0.976673   -0.702910   -2.723961
     14          6           0       -1.690915    0.170114    0.128566
     15          6           0       -2.274885    0.144800    1.591402
     16          6           0       -3.113966    1.427155    1.804338
     17          6           0       -1.210981    0.061888    2.702116
     18          6           0       -3.204772   -1.081831    1.721145
     19          6           0       -1.002816    1.488502   -0.237048
     20          6           0       -1.705797    2.385814   -1.064576
     21          6           0       -1.189959    3.646616   -1.391453
     22          6           0        0.058358    4.041042   -0.889560
     23          6           0        0.773169    3.157976   -0.067761
     24          6           0        0.251917    1.897581    0.254502
     25          1           0        1.324798   -3.113305    2.244682
     26          1           0        1.200773   -3.571165    0.534956
     27          1           0       -0.228080   -2.932882    1.388110
     28          1           0        1.126928   -0.761623    1.756870
     29          1           0        4.484623   -0.082035   -1.024297
     30          1           0        5.230527   -0.284096    0.574195
     31          1           0        3.847027    2.277433   -0.448271
     32          1           0        5.603165    2.068647   -0.268932
     33          1           0        4.559932    2.089700    1.169411
     34          1           0       -0.672165   -3.693200   -0.970681
     35          1           0        0.620267   -2.751876   -1.751507
     36          1           0       -0.700064   -3.427615   -2.725214
     37          1           0       -2.970875   -2.664600   -2.511125
     38          1           0       -3.456636   -1.242564   -1.590173
     39          1           0       -3.009800   -2.735504   -0.736572
     40          1           0       -1.102523   -1.206302   -3.689222
     41          1           0        0.053234   -0.344005   -2.645900
     42          1           0       -1.643599    0.164544   -2.706858
     43          1           0       -2.591884    0.137099   -0.492740
     44          1           0       -3.655212    1.361535    2.755623
     45          1           0       -3.854333    1.557073    1.004414
     46          1           0       -2.484320    2.322279    1.828575
     47          1           0       -0.709025   -0.909607    2.690455
     48          1           0       -1.697642    0.166416    3.679385
     49          1           0       -0.466062    0.859526    2.618116
     50          1           0       -4.043069   -1.021609    1.015443
     51          1           0       -3.619752   -1.136300    2.734664
     52          1           0       -2.650788   -2.003559    1.518679
     53          1           0       -2.678404    2.097034   -1.456585
     54          1           0       -1.758400    4.313980   -2.031169
     55          1           0        0.466414    5.016150   -1.135431
     56          1           0        1.741710    3.447873    0.327845
     57          1           0        0.848490    1.238205    0.867688
 ---------------------------------------------------------------------
 Rotational constants (GHZ):           0.2654688           0.2150200           0.1642231
 Leave Link  202 at Tue Jan  7 22:20:55 2025, MaxMem=  4026531840 cpu:               0.1 elap:               0.0
 (Enter /usr/local/intel/g16/l301.exe)
 Standard basis: def2TZVP (5D, 7F)
 Ernie: Thresh=  0.10000D-02 Tol=  0.10000D-05 Strict=F.
 There are  1062 symmetry adapted cartesian basis functions of A   symmetry.
 There are   942 symmetry adapted basis functions of A   symmetry.
   942 basis functions,  1488 primitive gaussians,  1062 cartesian basis functions
    92 alpha electrons       92 beta electrons
       nuclear repulsion energy      2364.2727050625 Hartrees.
 IExCor= 4336 DFT=T Ex+Corr=M062X ExCW=0 ScaHFX=  0.540000
 ScaDFX=  1.000000  1.000000  1.000000  1.000000 ScalE2=  1.000000  1.000000
 IRadAn=      5 IRanWt=     -1 IRanGd=            0 ICorTp=0 IEmpDi=  4
 NAtoms=   57 NActive=   57 NUniq=   57 SFac= 1.00D+00 NAtFMM=   60 NAOKFM=F Big=F
 Integral buffers will be    131072 words long.
 Raffenetti 2 integral format.
 Two-electron integral symmetry is turned on.
 Leave Link  301 at Tue Jan  7 22:20:55 2025, MaxMem=  4026531840 cpu:               1.3 elap:               0.1
 (Enter /usr/local/intel/g16/l302.exe)
 NPDir=0 NMtPBC=     1 NCelOv=     1 NCel=       1 NClECP=     1 NCelD=      1
         NCelK=      1 NCelE2=     1 NClLst=     1 CellRange=     0.0.
 One-electron integrals computed using PRISM.
 One-electron integral symmetry used in STVInt
   1 Symmetry operations used in ECPInt.
 ECPInt:  NShTT=   78606 NPrTT=  230808 LenC2=   69957 LenP2D=  145553.
 LDataN:  DoStor=T MaxTD1= 6 Len=  172
 NBasis=   942 RedAO= T EigKep=  6.59D-06  NBF=   942
 NBsUse=   942 1.00D-06 EigRej= -1.00D+00 NBFU=   942
 Precomputing XC quadrature grid using
 IXCGrd= 4 IRadAn=           5 IRanWt=          -1 IRanGd=           0 AccXCQ= 0.00D+00.
 Generated NRdTot=       0 NPtTot=           0 NUsed=           0 NTot=          32
 NSgBfM=  1051  1050  1051  1051  1051 MxSgAt=    57 MxSgA2=    57.
 Leave Link  302 at Tue Jan  7 22:20:58 2025, MaxMem=  4026531840 cpu:              61.7 elap:               3.1
 (Enter /usr/local/intel/g16/l303.exe)
 DipDrv:  MaxL=1.
 Leave Link  303 at Tue Jan  7 22:20:58 2025, MaxMem=  4026531840 cpu:               6.6 elap:               0.4
 (Enter /usr/local/intel/g16/l401.exe)
 ExpMin= 9.52D-02 ExpMax= 2.70D+04 ExpMxC= 9.22D+02 IAcc=3 IRadAn=         5 AccDes= 0.00D+00
 Harris functional with IExCor= 1009 and IRadAn=       5 diagonalized for initial guess.
 HarFok:  IExCor= 1009 AccDes= 0.00D+00 IRadAn=         5 IDoV= 1 UseB2=F ITyADJ=14
 ICtDFT=  3500011 ScaDFX=  1.000000  1.000000  1.000000  1.000000
 FoFCou: FMM=F IPFlag=           0 FMFlag=      100000 FMFlg1=           0
         NFxFlg=           0 DoJE=T BraDBF=F KetDBF=T FulRan=T
         wScrn=  0.000000 ICntrl=       500 IOpCl=  0 I1Cent=   200000004 NGrid=           0
         NMat0=    1 NMatS0=      1 NMatT0=    0 NMatD0=    1 NMtDS0=    0 NMtDT0=    0
 Petite list used in FoFCou.
 Harris En= -1061.92846999147    
 JPrj=0 DoOrth=F DoCkMO=F.
 Leave Link  401 at Tue Jan  7 22:21:09 2025, MaxMem=  4026531840 cpu:             214.6 elap:              10.8
 (Enter /usr/local/intel/g16/l502.exe)
 Integral symmetry usage will be decided dynamically.
 Closed shell SCF:
 Using DIIS extrapolation, IDIIS=  1040.
 NGot=  4026531840 LenX=  4024243958 LenY=  4023115052
 Requested convergence on RMS density matrix=1.00D-08 within 128 cycles.
 Requested convergence on MAX density matrix=1.00D-06.
 Requested convergence on             energy=1.00D-06.
 No special actions if energy rises.
 Fock matrices will be formed incrementally for  20 cycles.
 Integral accuracy reduced to 1.0D-05 until final iterations.

 Cycle   1  Pass 0  IDiag  1:
 FoFJK:  IHMeth= 1 ICntrl=       0 DoSepK=F KAlg= 0 I1Cent=           0 FoldK=F
 IRaf= 820000000 NMat=       1 IRICut=       1 DoRegI=T DoRafI=F ISym2E= 0 IDoP0=0 IntGTp=1.
 FoFCou: FMM=F IPFlag=           0 FMFlag=      100000 FMFlg1=           0
         NFxFlg=           0 DoJE=F BraDBF=F KetDBF=F FulRan=T
         wScrn=  0.000000 ICntrl=         0 IOpCl=  0 I1Cent=           0 NGrid=           0
         NMat0=    1 NMatS0=      1 NMatT0=    0 NMatD0=    1 NMtDS0=    0 NMtDT0=    0
 Symmetry not used in FoFCou.
 E= -1061.49616803980    
 DIIS: error= 2.22D-02 at cycle   1 NSaved=   1.
 NSaved= 1 IEnMin= 1 EnMin= -1061.49616803980     IErMin= 1 ErrMin= 2.22D-02
 ErrMax= 2.22D-02  0.00D+00 EMaxC= 1.00D-01 BMatC= 9.50D-01 BMatP= 9.50D-01
 IDIUse=3 WtCom= 7.78D-01 WtEn= 2.22D-01
 Coeff-Com:  0.100D+01
 Coeff-En:   0.100D+01
 Coeff:      0.100D+01
 Gap=     0.397 Goal=   None    Shift=    0.000
 GapD=    0.397 DampG=1.000 DampE=0.500 DampFc=0.5000 IDamp=-1.
 Damping current iteration by 5.00D-01
 RMSDP=2.65D-03 MaxDP=2.36D-01              OVMax= 1.65D-01

 Cycle   2  Pass 0  IDiag  1:
 RMSU=  1.32D-03    CP:  9.86D-01
 E= -1061.89873323493     Delta-E=       -0.402565195132 Rises=F Damp=T
 DIIS: error= 3.76D-03 at cycle   2 NSaved=   2.
 NSaved= 2 IEnMin= 2 EnMin= -1061.89873323493     IErMin= 2 ErrMin= 3.76D-03
 ErrMax= 3.76D-03  0.00D+00 EMaxC= 1.00D-01 BMatC= 7.12D-02 BMatP= 9.50D-01
 IDIUse=3 WtCom= 9.62D-01 WtEn= 3.76D-02
 Coeff-Com: -0.747D-01 0.107D+01
 Coeff-En:   0.000D+00 0.100D+01
 Coeff:     -0.719D-01 0.107D+01
 Gap=     0.322 Goal=   None    Shift=    0.000
 RMSDP=1.32D-03 MaxDP=1.50D-01 DE=-4.03D-01 OVMax= 1.06D-01

 Cycle   3  Pass 0  IDiag  1:
 RMSU=  1.06D-03    CP:  9.90D-01  1.59D+00
 E= -1062.27121467460     Delta-E=       -0.372481439672 Rises=F Damp=F
 DIIS: error= 4.89D-03 at cycle   3 NSaved=   3.
 NSaved= 3 IEnMin= 3 EnMin= -1062.27121467460     IErMin= 2 ErrMin= 3.76D-03
 ErrMax= 4.89D-03  0.00D+00 EMaxC= 1.00D-01 BMatC= 4.01D-02 BMatP= 7.12D-02
 IDIUse=3 WtCom= 9.51D-01 WtEn= 4.89D-02
 Coeff-Com: -0.887D-01 0.478D+00 0.611D+00
 Coeff-En:   0.000D+00 0.000D+00 0.100D+01
 Coeff:     -0.843D-01 0.455D+00 0.630D+00
 Gap=     0.309 Goal=   None    Shift=    0.000
 RMSDP=2.91D-04 MaxDP=2.92D-02 DE=-3.72D-01 OVMax= 4.73D-02

 Cycle   4  Pass 0  IDiag  1:
 RMSU=  2.71D-04    CP:  9.91D-01  1.67D+00  9.75D-01
 E= -1062.29235582384     Delta-E=       -0.021141149236 Rises=F Damp=F
 DIIS: error= 2.58D-03 at cycle   4 NSaved=   4.
 NSaved= 4 IEnMin= 4 EnMin= -1062.29235582384     IErMin= 4 ErrMin= 2.58D-03
 ErrMax= 2.58D-03  0.00D+00 EMaxC= 1.00D-01 BMatC= 1.11D-02 BMatP= 4.01D-02
 IDIUse=3 WtCom= 9.74D-01 WtEn= 2.58D-02
 Coeff-Com: -0.344D-01 0.992D-01 0.369D+00 0.566D+00
 Coeff-En:   0.000D+00 0.000D+00 0.226D+00 0.774D+00
 Coeff:     -0.336D-01 0.966D-01 0.366D+00 0.571D+00
 Gap=     0.307 Goal=   None    Shift=    0.000
 RMSDP=1.64D-04 MaxDP=1.75D-02 DE=-2.11D-02 OVMax= 2.00D-02

 Cycle   5  Pass 0  IDiag  1:
 RMSU=  1.33D-04    CP:  9.92D-01  1.72D+00  1.03D+00  8.50D-01
 E= -1062.30021067845     Delta-E=       -0.007854854609 Rises=F Damp=F
 DIIS: error= 3.70D-04 at cycle   5 NSaved=   5.
 NSaved= 5 IEnMin= 5 EnMin= -1062.30021067845     IErMin= 5 ErrMin= 3.70D-04
 ErrMax= 3.70D-04  0.00D+00 EMaxC= 1.00D-01 BMatC= 3.16D-04 BMatP= 1.11D-02
 IDIUse=3 WtCom= 9.96D-01 WtEn= 3.70D-03
 Coeff-Com: -0.102D-01 0.214D-01 0.130D+00 0.253D+00 0.605D+00
 Coeff-En:   0.000D+00 0.000D+00 0.000D+00 0.000D+00 0.100D+01
 Coeff:     -0.102D-01 0.213D-01 0.130D+00 0.252D+00 0.607D+00
 Gap=     0.305 Goal=   None    Shift=    0.000
 RMSDP=3.56D-05 MaxDP=2.92D-03 DE=-7.85D-03 OVMax= 3.76D-03

 Cycle   6  Pass 0  IDiag  1:
 RMSU=  3.43D-05    CP:  9.92D-01  1.72D+00  1.03D+00  8.69D-01  1.02D+00
 E= -1062.30043360000     Delta-E=       -0.000222921550 Rises=F Damp=F
 DIIS: error= 1.30D-04 at cycle   6 NSaved=   6.
 NSaved= 6 IEnMin= 6 EnMin= -1062.30043360000     IErMin= 6 ErrMin= 1.30D-04
 ErrMax= 1.30D-04  0.00D+00 EMaxC= 1.00D-01 BMatC= 3.39D-05 BMatP= 3.16D-04
 IDIUse=3 WtCom= 9.99D-01 WtEn= 1.30D-03
 Coeff-Com: -0.105D-02-0.348D-03 0.225D-01 0.586D-01 0.287D+00 0.633D+00
 Coeff-En:   0.000D+00 0.000D+00 0.000D+00 0.000D+00 0.000D+00 0.100D+01
 Coeff:     -0.105D-02-0.347D-03 0.225D-01 0.586D-01 0.287D+00 0.633D+00
 Gap=     0.306 Goal=   None    Shift=    0.000
 RMSDP=2.70D-05 MaxDP=2.19D-03 DE=-2.23D-04 OVMax= 9.56D-04

 Cycle   7  Pass 0  IDiag  1:
 RMSU=  2.39D-05    CP:  9.92D-01  1.72D+00  1.03D+00  8.62D-01  1.08D+00
                    CP:  1.23D+00
 E= -1062.30045065340     Delta-E=       -0.000017053406 Rises=F Damp=F
 DIIS: error= 2.80D-05 at cycle   7 NSaved=   7.
 NSaved= 7 IEnMin= 7 EnMin= -1062.30045065340     IErMin= 7 ErrMin= 2.80D-05
 ErrMax= 2.80D-05  0.00D+00 EMaxC= 1.00D-01 BMatC= 2.14D-06 BMatP= 3.39D-05
 IDIUse=1 WtCom= 1.00D+00 WtEn= 0.00D+00
 Coeff-Com:  0.800D-03-0.256D-02-0.535D-02-0.663D-02 0.434D-01 0.212D+00
 Coeff-Com:  0.758D+00
 Coeff:      0.800D-03-0.256D-02-0.535D-02-0.663D-02 0.434D-01 0.212D+00
 Coeff:      0.758D+00
 Gap=     0.306 Goal=   None    Shift=    0.000
 RMSDP=3.77D-05 MaxDP=2.97D-03 DE=-1.71D-05 OVMax= 3.25D-04

 Cycle   8  Pass 0  IDiag  1:
 RMSU=  2.60D-05    CP:  9.92D-01  1.71D+00  1.03D+00  8.41D-01  1.10D+00
                    CP:  1.70D+00  1.76D+00
 E= -1062.30043902103     Delta-E=        0.000011632374 Rises=F Damp=F
 DIIS: error= 5.25D-05 at cycle   8 NSaved=   8.
 NSaved= 8 IEnMin= 7 EnMin= -1062.30045065340     IErMin= 7 ErrMin= 2.80D-05
 ErrMax= 5.25D-05  0.00D+00 EMaxC= 1.00D-01 BMatC= 1.04D-06 BMatP= 2.14D-06
 IDIUse=1 WtCom= 1.00D+00 WtEn= 0.00D+00
 Coeff-Com:  0.549D-03-0.144D-02-0.478D-02-0.937D-02 0.127D-02 0.652D-01
 Coeff-Com:  0.441D+00 0.507D+00
 Coeff:      0.549D-03-0.144D-02-0.478D-02-0.937D-02 0.127D-02 0.652D-01
 Coeff:      0.441D+00 0.507D+00
 Gap=     0.306 Goal=   None    Shift=    0.000
 RMSDP=3.80D-05 MaxDP=2.47D-03 DE= 1.16D-05 OVMax= 1.07D-04

 Cycle   9  Pass 0  IDiag  1:
 RMSU=  1.45D-05    CP:  9.92D-01  1.70D+00  1.02D+00  8.04D-01  1.07D+00
                    CP:  1.89D+00  2.54D+00  1.90D+00
 E= -1062.30043296352     Delta-E=        0.000006057509 Rises=F Damp=F
 DIIS: error= 8.79D-05 at cycle   9 NSaved=   9.
 NSaved= 9 IEnMin= 7 EnMin= -1062.30045065340     IErMin= 7 ErrMin= 2.80D-05
 ErrMax= 8.79D-05  0.00D+00 EMaxC= 1.00D-01 BMatC= 1.52D-06 BMatP= 1.04D-06
 IDIUse=1 WtCom= 1.00D+00 WtEn= 0.00D+00
 Coeff-Com:  0.799D-03-0.189D-02-0.774D-02-0.161D-01-0.159D-01 0.491D-01
 Coeff-Com:  0.601D+00 0.103D+01-0.638D+00
 Coeff:      0.799D-03-0.189D-02-0.774D-02-0.161D-01-0.159D-01 0.491D-01
 Coeff:      0.601D+00 0.103D+01-0.638D+00
 Gap=     0.306 Goal=   None    Shift=    0.000
 RMSDP=5.49D-05 MaxDP=3.41D-03 DE= 6.06D-06 OVMax= 6.56D-05

 Problem detected with inexpensive integrals.
 Switching to full accuracy and repeating last cycle.
 Cycle  10  Pass 1  IDiag  1:
 E= -1062.30037440360     Delta-E=        0.000058559921 Rises=F Damp=F
 DIIS: error= 5.75D-04 at cycle   1 NSaved=   1.
 NSaved= 1 IEnMin= 1 EnMin= -1062.30037440360     IErMin= 1 ErrMin= 5.75D-04
 ErrMax= 5.75D-04  0.00D+00 EMaxC= 1.00D-01 BMatC= 1.38D-04 BMatP= 1.38D-04
 IDIUse=3 WtCom= 9.94D-01 WtEn= 5.75D-03
 Coeff-Com:  0.100D+01
 Coeff-En:   0.100D+01
 Coeff:      0.100D+01
 Gap=     0.306 Goal=   None    Shift=    0.000
 RMSDP=2.00D-03 MaxDP=2.40D-01 DE= 5.86D-05 OVMax= 1.15D-03

 Cycle  11  Pass 1  IDiag  1:
 RMSU=  1.81D-03    CP:  8.52D-01
 E= -1062.30045867861     Delta-E=       -0.000084275012 Rises=F Damp=F
 DIIS: error= 1.81D-05 at cycle   2 NSaved=   2.
 NSaved= 2 IEnMin= 2 EnMin= -1062.30045867861     IErMin= 2 ErrMin= 1.81D-05
 ErrMax= 1.81D-05  0.00D+00 EMaxC= 1.00D-01 BMatC= 1.06D-07 BMatP= 1.38D-04
 IDIUse=1 WtCom= 1.00D+00 WtEn= 0.00D+00
 Coeff-Com: -0.153D-01 0.102D+01
 Coeff:     -0.153D-01 0.102D+01
 Gap=     0.306 Goal=   None    Shift=    0.000
 RMSDP=4.11D-05 MaxDP=2.32D-03 DE=-8.43D-05 OVMax= 1.06D-04

 Cycle  12  Pass 1  IDiag  1:
 RMSU=  2.46D-05    CP:  8.49D-01  1.02D+00
 E= -1062.30045873264     Delta-E=       -0.000000054025 Rises=F Damp=F
 DIIS: error= 7.84D-06 at cycle   3 NSaved=   3.
 NSaved= 3 IEnMin= 3 EnMin= -1062.30045873264     IErMin= 3 ErrMin= 7.84D-06
 ErrMax= 7.84D-06  0.00D+00 EMaxC= 1.00D-01 BMatC= 1.03D-07 BMatP= 1.06D-07
 IDIUse=1 WtCom= 1.00D+00 WtEn= 0.00D+00
 Coeff-Com: -0.885D-02 0.556D+00 0.453D+00
 Coeff:     -0.885D-02 0.556D+00 0.453D+00
 Gap=     0.306 Goal=   None    Shift=    0.000
 RMSDP=6.04D-07 MaxDP=6.25D-05 DE=-5.40D-08 OVMax= 6.05D-05

 Cycle  13  Pass 1  IDiag  1:
 RMSU=  3.59D-07    CP:  8.49D-01  1.02D+00  1.01D+00
 E= -1062.30045880283     Delta-E=       -0.000000070191 Rises=F Damp=F
 DIIS: error= 2.18D-06 at cycle   4 NSaved=   4.
 NSaved= 4 IEnMin= 4 EnMin= -1062.30045880283     IErMin= 4 ErrMin= 2.18D-06
 ErrMax= 2.18D-06  0.00D+00 EMaxC= 1.00D-01 BMatC= 4.88D-09 BMatP= 1.03D-07
 IDIUse=1 WtCom= 1.00D+00 WtEn= 0.00D+00
 Coeff-Com: -0.944D-03 0.501D-01 0.177D+00 0.773D+00
 Coeff:     -0.944D-03 0.501D-01 0.177D+00 0.773D+00
 Gap=     0.306 Goal=   None    Shift=    0.000
 RMSDP=6.05D-07 MaxDP=5.79D-05 DE=-7.02D-08 OVMax= 2.07D-05

 Cycle  14  Pass 1  IDiag  1:
 RMSU=  2.10D-07    CP:  8.49D-01  1.02D+00  1.03D+00  1.23D+00
 E= -1062.30045880606     Delta-E=       -0.000000003230 Rises=F Damp=F
 DIIS: error= 5.21D-07 at cycle   5 NSaved=   5.
 NSaved= 5 IEnMin= 5 EnMin= -1062.30045880606     IErMin= 5 ErrMin= 5.21D-07
 ErrMax= 5.21D-07  0.00D+00 EMaxC= 1.00D-01 BMatC= 9.10D-10 BMatP= 4.88D-09
 IDIUse=1 WtCom= 1.00D+00 WtEn= 0.00D+00
 Coeff-Com:  0.307D-03-0.240D-01 0.456D-01 0.397D+00 0.581D+00
 Coeff:      0.307D-03-0.240D-01 0.456D-01 0.397D+00 0.581D+00
 Gap=     0.306 Goal=   None    Shift=    0.000
 RMSDP=1.15D-07 MaxDP=7.31D-06 DE=-3.23D-09 OVMax= 5.01D-06

 Cycle  15  Pass 1  IDiag  1:
 RMSU=  4.15D-08    CP:  8.49D-01  1.02D+00  1.03D+00  1.29D+00  1.14D+00
 E= -1062.30045880674     Delta-E=       -0.000000000686 Rises=F Damp=F
 DIIS: error= 1.16D-07 at cycle   6 NSaved=   6.
 NSaved= 6 IEnMin= 6 EnMin= -1062.30045880674     IErMin= 6 ErrMin= 1.16D-07
 ErrMax= 1.16D-07  0.00D+00 EMaxC= 1.00D-01 BMatC= 3.31D-11 BMatP= 9.10D-10
 IDIUse=1 WtCom= 1.00D+00 WtEn= 0.00D+00
 Coeff-Com:  0.150D-03-0.105D-01 0.259D-02 0.973D-01 0.182D+00 0.729D+00
 Coeff:      0.150D-03-0.105D-01 0.259D-02 0.973D-01 0.182D+00 0.729D+00
 Gap=     0.306 Goal=   None    Shift=    0.000
 RMSDP=1.48D-08 MaxDP=1.90D-06 DE=-6.86D-10 OVMax= 1.67D-06

 Cycle  16  Pass 1  IDiag  1:
 RMSU=  1.28D-08    CP:  8.49D-01  1.02D+00  1.03D+00  1.31D+00  1.17D+00
                    CP:  1.04D+00
 E= -1062.30045880676     Delta-E=       -0.000000000012 Rises=F Damp=F
 DIIS: error= 8.11D-08 at cycle   7 NSaved=   7.
 NSaved= 7 IEnMin= 7 EnMin= -1062.30045880676     IErMin= 7 ErrMin= 8.11D-08
 ErrMax= 8.11D-08  0.00D+00 EMaxC= 1.00D-01 BMatC= 1.22D-11 BMatP= 3.31D-11
 IDIUse=1 WtCom= 1.00D+00 WtEn= 0.00D+00
 Coeff-Com: -0.147D-04 0.178D-02-0.139D-01-0.636D-01-0.937D-01 0.354D+00
 Coeff-Com:  0.815D+00
 Coeff:     -0.147D-04 0.178D-02-0.139D-01-0.636D-01-0.937D-01 0.354D+00
 Coeff:      0.815D+00
 Gap=     0.306 Goal=   None    Shift=    0.000
 RMSDP=9.76D-09 MaxDP=4.69D-07 DE=-1.18D-11 OVMax= 1.11D-06

 SCF Done:  E(RM062X) =  -1062.30045881     A.U. after   16 cycles
            NFock= 16  Conv=0.98D-08     -V/T= 2.0060
 KE= 1.055942476386D+03 PE=-7.199714248369D+03 EE= 2.717198608114D+03
 Leave Link  502 at Tue Jan  7 22:42:15 2025, MaxMem=  4026531840 cpu:           25267.9 elap:            1264.8
 (Enter /usr/local/intel/g16/l601.exe)
 Copying SCF densities to generalized density rwf, IOpCl= 0 IROHF=0.

 **********************************************************************

            Population analysis using the SCF Density.

 **********************************************************************

 Orbital symmetries:
       Occupied  (A) (A) (A) (A) (A) (A) (A) (A) (A) (A) (A) (A)
                 (A) (A) (A) (A) (A) (A) (A) (A) (A) (A) (A) (A)
                 (A) (A) (A) (A) (A) (A) (A) (A) (A) (A) (A) (A)
                 (A) (A) (A) (A) (A) (A) (A) (A) (A) (A) (A) (A)
                 (A) (A) (A) (A) (A) (A) (A) (A) (A) (A) (A) (A)
                 (A) (A) (A) (A) (A) (A) (A) (A) (A) (A) (A) (A)
                 (A) (A) (A) (A) (A) (A) (A) (A) (A) (A) (A) (A)
                 (A) (A) (A) (A) (A) (A) (A) (A)
       Virtual   (A) (A) (A) (A) (A) (A) (A) (A) (A) (A) (A) (A)
                 (A) (A) (A) (A) (A) (A) (A) (A) (A) (A) (A) (A)
                 (A) (A) (A) (A) (A) (A) (A) (A) (A) (A) (A) (A)
                 (A) (A) (A) (A) (A) (A) (A) (A) (A) (A) (A) (A)
                 (A) (A) (A) (A) (A) (A) (A) (A) (A) (A) (A) (A)
                 (A) (A) (A) (A) (A) (A) (A) (A) (A) (A) (A) (A)
                 (A) (A) (A) (A) (A) (A) (A) (A) (A) (A) (A) (A)
                 (A) (A) (A) (A) (A) (A) (A) (A) (A) (A) (A) (A)
                 (A) (A) (A) (A) (A) (A) (A) (A) (A) (A) (A) (A)
                 (A) (A) (A) (A) (A) (A) (A) (A) (A) (A) (A) (A)
                 (A) (A) (A) (A) (A) (A) (A) (A) (A) (A) (A) (A)
                 (A) (A) (A) (A) (A) (A) (A) (A) (A) (A) (A) (A)
                 (A) (A) (A) (A) (A) (A) (A) (A) (A) (A) (A) (A)
                 (A) (A) (A) (A) (A) (A) (A) (A) (A) (A) (A) (A)
                 (A) (A) (A) (A) (A) (A) (A) (A) (A) (A) (A) (A)
                 (A) (A) (A) (A) (A) (A) (A) (A) (A) (A) (A) (A)
                 (A) (A) (A) (A) (A) (A) (A) (A) (A) (A) (A) (A)
                 (A) (A) (A) (A) (A) (A) (A) (A) (A) (A) (A) (A)
                 (A) (A) (A) (A) (A) (A) (A) (A) (A) (A) (A) (A)
                 (A) (A) (A) (A) (A) (A) (A) (A) (A) (A) (A) (A)
                 (A) (A) (A) (A) (A) (A) (A) (A) (A) (A) (A) (A)
                 (A) (A) (A) (A) (A) (A) (A) (A) (A) (A) (A) (A)
                 (A) (A) (A) (A) (A) (A) (A) (A) (A) (A) (A) (A)
                 (A) (A) (A) (A) (A) (A) (A) (A) (A) (A) (A) (A)
                 (A) (A) (A) (A) (A) (A) (A) (A) (A) (A) (A) (A)
                 (A) (A) (A) (A) (A) (A) (A) (A) (A) (A) (A) (A)
                 (A) (A) (A) (A) (A) (A) (A) (A) (A) (A) (A) (A)
                 (A) (A) (A) (A) (A) (A) (A) (A) (A) (A) (A) (A)
                 (A) (A) (A) (A) (A) (A) (A) (A) (A) (A) (A) (A)
                 (A) (A) (A) (A) (A) (A) (A) (A) (A) (A) (A) (A)
                 (A) (A) (A) (A) (A) (A) (A) (A) (A) (A) (A) (A)
                 (A) (A) (A) (A) (A) (A) (A) (A) (A) (A) (A) (A)
                 (A) (A) (A) (A) (A) (A) (A) (A) (A) (A) (A) (A)
                 (A) (A) (A) (A) (A) (A) (A) (A) (A) (A) (A) (A)
                 (A) (A) (A) (A) (A) (A) (A) (A) (A) (A) (A) (A)
                 (A) (A) (A) (A) (A) (A) (A) (A) (A) (A) (A) (A)
                 (A) (A) (A) (A) (A) (A) (A) (A) (A) (A) (A) (A)
                 (A) (A) (A) (A) (A) (A) (A) (A) (A) (A) (A) (A)
                 (A) (A) (A) (A) (A) (A) (A) (A) (A) (A) (A) (A)
                 (A) (A) (A) (A) (A) (A) (A) (A) (A) (A) (A) (A)
                 (A) (A) (A) (A) (A) (A) (A) (A) (A) (A) (A) (A)
                 (A) (A) (A) (A) (A) (A) (A) (A) (A) (A) (A) (A)
                 (A) (A) (A) (A) (A) (A) (A) (A) (A) (A) (A) (A)
                 (A) (A) (A) (A) (A) (A) (A) (A) (A) (A) (A) (A)
                 (A) (A) (A) (A) (A) (A) (A) (A) (A) (A) (A) (A)
                 (A) (A) (A) (A) (A) (A) (A) (A) (A) (A) (A) (A)
                 (A) (A) (A) (A) (A) (A) (A) (A) (A) (A) (A) (A)
                 (A) (A) (A) (A) (A) (A) (A) (A) (A) (A) (A) (A)
                 (A) (A) (A) (A) (A) (A) (A) (A) (A) (A) (A) (A)
                 (A) (A) (A) (A) (A) (A) (A) (A) (A) (A) (A) (A)
                 (A) (A) (A) (A) (A) (A) (A) (A) (A) (A) (A) (A)
                 (A) (A) (A) (A) (A) (A) (A) (A) (A) (A) (A) (A)
                 (A) (A) (A) (A) (A) (A) (A) (A) (A) (A) (A) (A)
                 (A) (A) (A) (A) (A) (A) (A) (A) (A) (A) (A) (A)
                 (A) (A) (A) (A) (A) (A) (A) (A) (A) (A) (A) (A)
                 (A) (A) (A) (A) (A) (A) (A) (A) (A) (A) (A) (A)
                 (A) (A) (A) (A) (A) (A) (A) (A) (A) (A) (A) (A)
                 (A) (A) (A) (A) (A) (A) (A) (A) (A) (A) (A) (A)
                 (A) (A) (A) (A) (A) (A) (A) (A) (A) (A) (A) (A)
                 (A) (A) (A) (A) (A) (A) (A) (A) (A) (A) (A) (A)
                 (A) (A) (A) (A) (A) (A) (A) (A) (A) (A) (A) (A)
                 (A) (A) (A) (A) (A) (A) (A) (A) (A) (A) (A) (A)
                 (A) (A) (A) (A) (A) (A) (A) (A) (A) (A) (A) (A)
                 (A) (A) (A) (A) (A) (A) (A) (A) (A) (A) (A) (A)
                 (A) (A) (A) (A) (A) (A) (A) (A) (A) (A) (A) (A)
                 (A) (A) (A) (A) (A) (A) (A) (A) (A) (A) (A) (A)
                 (A) (A) (A) (A) (A) (A) (A) (A) (A) (A) (A) (A)
                 (A) (A) (A) (A) (A) (A) (A) (A) (A) (A) (A) (A)
                 (A) (A) (A) (A) (A) (A) (A) (A) (A) (A) (A) (A)
                 (A) (A) (A) (A) (A) (A) (A) (A) (A) (A) (A) (A)
                 (A) (A) (A) (A) (A) (A) (A) (A) (A) (A)
 The electronic state is 1-A.
 Alpha  occ. eigenvalues --  -19.67430 -19.65650 -19.62215 -14.79453 -10.67910
 Alpha  occ. eigenvalues --  -10.60756 -10.60172 -10.57925 -10.57552 -10.55199
 Alpha  occ. eigenvalues --  -10.55088 -10.54282 -10.54234 -10.54179 -10.54106
 Alpha  occ. eigenvalues --  -10.53927 -10.53841 -10.52875 -10.52789 -10.52247
 Alpha  occ. eigenvalues --  -10.52116 -10.52002 -10.51629 -10.51614  -1.22039
 Alpha  occ. eigenvalues --   -1.17433  -1.12961  -0.98536  -0.95288  -0.91889
 Alpha  occ. eigenvalues --   -0.88948  -0.87000  -0.85298  -0.83702  -0.83323
 Alpha  occ. eigenvalues --   -0.78305  -0.77555  -0.77389  -0.76998  -0.76136
 Alpha  occ. eigenvalues --   -0.74231  -0.70117  -0.68557  -0.66913  -0.64568
 Alpha  occ. eigenvalues --   -0.62918  -0.61152  -0.59682  -0.58863  -0.57040
 Alpha  occ. eigenvalues --   -0.55867  -0.55682  -0.55081  -0.53786  -0.53394
 Alpha  occ. eigenvalues --   -0.51965  -0.50910  -0.50470  -0.49920  -0.49499
 Alpha  occ. eigenvalues --   -0.49288  -0.49014  -0.48330  -0.47855  -0.46926
 Alpha  occ. eigenvalues --   -0.46418  -0.45686  -0.45276  -0.44663  -0.44524
 Alpha  occ. eigenvalues --   -0.44285  -0.43747  -0.43120  -0.42961  -0.42902
 Alpha  occ. eigenvalues --   -0.42567  -0.42420  -0.42352  -0.41958  -0.40480
 Alpha  occ. eigenvalues --   -0.39872  -0.39381  -0.38716  -0.38093  -0.37834
 Alpha  occ. eigenvalues --   -0.37455  -0.37217  -0.35716  -0.34112  -0.30312
 Alpha  occ. eigenvalues --   -0.29615  -0.28804
 Alpha virt. eigenvalues --    0.01782   0.02104   0.02505   0.04970   0.06529
 Alpha virt. eigenvalues --    0.07732   0.07900   0.08796   0.09034   0.09726
 Alpha virt. eigenvalues --    0.10051   0.10830   0.11246   0.11526   0.11760
 Alpha virt. eigenvalues --    0.12811   0.12914   0.13177   0.13581   0.13711
 Alpha virt. eigenvalues --    0.13973   0.14494   0.14712   0.14862   0.15163
 Alpha virt. eigenvalues --    0.15682   0.15814   0.16304   0.16681   0.16874
 Alpha virt. eigenvalues --    0.17005   0.17696   0.18164   0.18397   0.18698
 Alpha virt. eigenvalues --    0.18937   0.19268   0.19419   0.19833   0.20093
 Alpha virt. eigenvalues --    0.20103   0.20681   0.21297   0.21614   0.21927
 Alpha virt. eigenvalues --    0.22132   0.22635   0.23231   0.23651   0.23855
 Alpha virt. eigenvalues --    0.24464   0.24894   0.25174   0.25793   0.25932
 Alpha virt. eigenvalues --    0.26372   0.26492   0.27160   0.27728   0.28377
 Alpha virt. eigenvalues --    0.28426   0.28646   0.29783   0.29893   0.30365
 Alpha virt. eigenvalues --    0.30726   0.31191   0.31720   0.31986   0.32636
 Alpha virt. eigenvalues --    0.33073   0.33710   0.34480   0.34939   0.35382
 Alpha virt. eigenvalues --    0.35732   0.36103   0.36553   0.36654   0.37380
 Alpha virt. eigenvalues --    0.37583   0.38149   0.38801   0.38923   0.39222
 Alpha virt. eigenvalues --    0.39627   0.40170   0.40720   0.40908   0.41466
 Alpha virt. eigenvalues --    0.41817   0.41891   0.42315   0.42975   0.43342
 Alpha virt. eigenvalues --    0.43683   0.44008   0.44430   0.44567   0.44728
 Alpha virt. eigenvalues --    0.45120   0.45418   0.45680   0.45981   0.46389
 Alpha virt. eigenvalues --    0.46558   0.46614   0.47562   0.47758   0.48184
 Alpha virt. eigenvalues --    0.48443   0.48582   0.48795   0.49241   0.49620
 Alpha virt. eigenvalues --    0.49693   0.50033   0.50244   0.50494   0.50696
 Alpha virt. eigenvalues --    0.51214   0.51650   0.51984   0.52025   0.52223
 Alpha virt. eigenvalues --    0.52320   0.52821   0.53179   0.53248   0.53815
 Alpha virt. eigenvalues --    0.53962   0.54283   0.54921   0.55282   0.55548
 Alpha virt. eigenvalues --    0.56079   0.56571   0.57077   0.57141   0.57517
 Alpha virt. eigenvalues --    0.58125   0.58488   0.59117   0.59551   0.60066
 Alpha virt. eigenvalues --    0.60482   0.60757   0.61001   0.61795   0.62439
 Alpha virt. eigenvalues --    0.63296   0.63459   0.64131   0.64470   0.65479
 Alpha virt. eigenvalues --    0.65865   0.66768   0.66893   0.67684   0.67929
 Alpha virt. eigenvalues --    0.68041   0.69711   0.70163   0.70757   0.71391
 Alpha virt. eigenvalues --    0.71818   0.72067   0.72822   0.73241   0.74043
 Alpha virt. eigenvalues --    0.74451   0.74759   0.75177   0.76537   0.76801
 Alpha virt. eigenvalues --    0.77260   0.77816   0.78625   0.79096   0.79730
 Alpha virt. eigenvalues --    0.80354   0.80945   0.82364   0.83027   0.84157
 Alpha virt. eigenvalues --    0.84787   0.85798   0.86485   0.87066   0.87549
 Alpha virt. eigenvalues --    0.87944   0.88550   0.88996   0.89433   0.89613
 Alpha virt. eigenvalues --    0.90201   0.90547   0.91075   0.91475   0.92720
 Alpha virt. eigenvalues --    0.93070   0.93411   0.94426   0.94966   0.95297
 Alpha virt. eigenvalues --    0.96392   0.96722   0.97059   0.97363   0.97804
 Alpha virt. eigenvalues --    0.99010   0.99147   1.00181   1.00596   1.01250
 Alpha virt. eigenvalues --    1.01947   1.02584   1.03189   1.03586   1.04400
 Alpha virt. eigenvalues --    1.05302   1.05386   1.06120   1.06762   1.07563
 Alpha virt. eigenvalues --    1.08058   1.08403   1.09035   1.09766   1.10755
 Alpha virt. eigenvalues --    1.11235   1.12354   1.13400   1.13782   1.14186
 Alpha virt. eigenvalues --    1.14561   1.15511   1.16225   1.16642   1.17066
 Alpha virt. eigenvalues --    1.17870   1.18114   1.18292   1.18849   1.19243
 Alpha virt. eigenvalues --    1.19872   1.20913   1.21815   1.22214   1.22632
 Alpha virt. eigenvalues --    1.23078   1.23564   1.24138   1.24739   1.25101
 Alpha virt. eigenvalues --    1.25895   1.27412   1.27859   1.28306   1.28813
 Alpha virt. eigenvalues --    1.29278   1.30322   1.30971   1.31743   1.32861
 Alpha virt. eigenvalues --    1.34235   1.34363   1.34833   1.36206   1.37136
 Alpha virt. eigenvalues --    1.37274   1.38361   1.38931   1.39773   1.40471
 Alpha virt. eigenvalues --    1.41117   1.41891   1.42429   1.44166   1.44753
 Alpha virt. eigenvalues --    1.46541   1.47045   1.48868   1.49147   1.49848
 Alpha virt. eigenvalues --    1.51073   1.51986   1.52359   1.52901   1.53667
 Alpha virt. eigenvalues --    1.54071   1.54726   1.55094   1.56391   1.56768
 Alpha virt. eigenvalues --    1.57202   1.57904   1.58410   1.59131   1.59706
 Alpha virt. eigenvalues --    1.60038   1.60596   1.61181   1.61555   1.61734
 Alpha virt. eigenvalues --    1.62380   1.62827   1.62935   1.63491   1.63840
 Alpha virt. eigenvalues --    1.64112   1.64468   1.64844   1.65070   1.65501
 Alpha virt. eigenvalues --    1.65812   1.66172   1.66775   1.67631   1.67844
 Alpha virt. eigenvalues --    1.67995   1.68431   1.68768   1.69086   1.69566
 Alpha virt. eigenvalues --    1.70319   1.70925   1.71640   1.72339   1.72726
 Alpha virt. eigenvalues --    1.72991   1.73583   1.73860   1.74066   1.75041
 Alpha virt. eigenvalues --    1.75688   1.76789   1.77226   1.77770   1.77863
 Alpha virt. eigenvalues --    1.78577   1.79449   1.79748   1.80285   1.81253
 Alpha virt. eigenvalues --    1.82262   1.82617   1.82850   1.83488   1.84461
 Alpha virt. eigenvalues --    1.85304   1.85937   1.87012   1.87210   1.88049
 Alpha virt. eigenvalues --    1.88365   1.89789   1.91054   1.91638   1.91985
 Alpha virt. eigenvalues --    1.92528   1.94099   1.94789   1.95350   1.96030
 Alpha virt. eigenvalues --    1.96439   1.96942   1.97325   1.98132   1.99241
 Alpha virt. eigenvalues --    2.00134   2.00390   2.01743   2.02019   2.02970
 Alpha virt. eigenvalues --    2.03989   2.04069   2.04489   2.05551   2.05848
 Alpha virt. eigenvalues --    2.06838   2.07469   2.08322   2.08515   2.09375
 Alpha virt. eigenvalues --    2.09735   2.10799   2.11355   2.12654   2.12924
 Alpha virt. eigenvalues --    2.13909   2.14064   2.15365   2.16279   2.16627
 Alpha virt. eigenvalues --    2.17741   2.19055   2.19850   2.20793   2.21586
 Alpha virt. eigenvalues --    2.22396   2.22882   2.23397   2.24873   2.25408
 Alpha virt. eigenvalues --    2.25728   2.26106   2.27260   2.28054   2.28614
 Alpha virt. eigenvalues --    2.29477   2.29730   2.30615   2.31844   2.31862
 Alpha virt. eigenvalues --    2.32473   2.33193   2.33744   2.33958   2.34638
 Alpha virt. eigenvalues --    2.35345   2.35882   2.36628   2.37015   2.37753
 Alpha virt. eigenvalues --    2.37795   2.38210   2.38540   2.39384   2.39717
 Alpha virt. eigenvalues --    2.39964   2.40508   2.40706   2.41269   2.42017
 Alpha virt. eigenvalues --    2.42308   2.42851   2.44034   2.44047   2.45301
 Alpha virt. eigenvalues --    2.46075   2.46439   2.47273   2.47932   2.48408
 Alpha virt. eigenvalues --    2.49241   2.49694   2.50658   2.50813   2.52290
 Alpha virt. eigenvalues --    2.52644   2.52967   2.54189   2.54657   2.54846
 Alpha virt. eigenvalues --    2.55666   2.56000   2.56048   2.56663   2.56776
 Alpha virt. eigenvalues --    2.57252   2.57720   2.58204   2.58977   2.59363
 Alpha virt. eigenvalues --    2.60004   2.60273   2.61259   2.61540   2.61746
 Alpha virt. eigenvalues --    2.61879   2.62213   2.62479   2.62934   2.63448
 Alpha virt. eigenvalues --    2.63677   2.64037   2.64335   2.64973   2.65492
 Alpha virt. eigenvalues --    2.65981   2.66950   2.67251   2.67640   2.68328
 Alpha virt. eigenvalues --    2.68516   2.68803   2.69373   2.69906   2.70564
 Alpha virt. eigenvalues --    2.71389   2.71583   2.72153   2.72827   2.73265
 Alpha virt. eigenvalues --    2.73904   2.74077   2.74646   2.75359   2.76030
 Alpha virt. eigenvalues --    2.76326   2.76898   2.77277   2.78839   2.79359
 Alpha virt. eigenvalues --    2.79818   2.80379   2.80803   2.81632   2.82486
 Alpha virt. eigenvalues --    2.83058   2.83582   2.84300   2.85307   2.85620
 Alpha virt. eigenvalues --    2.85754   2.85977   2.86906   2.87601   2.87797
 Alpha virt. eigenvalues --    2.89401   2.89824   2.90338   2.90605   2.91239
 Alpha virt. eigenvalues --    2.91963   2.92478   2.93304   2.94029   2.94835
 Alpha virt. eigenvalues --    2.95242   2.96655   2.97411   2.99066   2.99630
 Alpha virt. eigenvalues --    3.00469   3.01358   3.02204   3.03505   3.04322
 Alpha virt. eigenvalues --    3.05613   3.06301   3.06835   3.07877   3.08214
 Alpha virt. eigenvalues --    3.08514   3.08775   3.09889   3.10266   3.10978
 Alpha virt. eigenvalues --    3.11759   3.12420   3.14007   3.14235   3.14623
 Alpha virt. eigenvalues --    3.15604   3.16035   3.16396   3.16679   3.17104
 Alpha virt. eigenvalues --    3.17327   3.17736   3.18238   3.19057   3.19837
 Alpha virt. eigenvalues --    3.20585   3.20732   3.21115   3.21572   3.22438
 Alpha virt. eigenvalues --    3.22968   3.23414   3.24031   3.24396   3.24962
 Alpha virt. eigenvalues --    3.25569   3.26006   3.26534   3.27142   3.27992
 Alpha virt. eigenvalues --    3.28127   3.28340   3.29322   3.30085   3.30620
 Alpha virt. eigenvalues --    3.30835   3.31167   3.31477   3.32227   3.32522
 Alpha virt. eigenvalues --    3.33116   3.34333   3.34766   3.35276   3.35623
 Alpha virt. eigenvalues --    3.35820   3.36521   3.37397   3.37648   3.37909
 Alpha virt. eigenvalues --    3.38034   3.38598   3.38934   3.39452   3.39582
 Alpha virt. eigenvalues --    3.39897   3.40480   3.41024   3.41379   3.42085
 Alpha virt. eigenvalues --    3.42183   3.42772   3.43609   3.44023   3.44506
 Alpha virt. eigenvalues --    3.44896   3.45793   3.46264   3.46681   3.46910
 Alpha virt. eigenvalues --    3.47851   3.48005   3.48515   3.48880   3.49532
 Alpha virt. eigenvalues --    3.50273   3.51228   3.51317   3.52197   3.52741
 Alpha virt. eigenvalues --    3.53116   3.53460   3.54915   3.55546   3.55861
 Alpha virt. eigenvalues --    3.55961   3.57070   3.58166   3.58759   3.61023
 Alpha virt. eigenvalues --    3.61814   3.61928   3.63082   3.63817   3.64430
 Alpha virt. eigenvalues --    3.64807   3.65759   3.66428   3.67129   3.67474
 Alpha virt. eigenvalues --    3.68491   3.69346   3.69963   3.70668   3.71457
 Alpha virt. eigenvalues --    3.72005   3.73098   3.73386   3.74293   3.75568
 Alpha virt. eigenvalues --    3.76986   3.76994   3.77501   3.77982   3.79840
 Alpha virt. eigenvalues --    3.80979   3.82185   3.82743   3.84280   3.85629
 Alpha virt. eigenvalues --    3.86364   3.87865   3.88113   3.89614   3.90552
 Alpha virt. eigenvalues --    3.92322   3.93208   3.93970   3.95799   3.96947
 Alpha virt. eigenvalues --    3.97472   3.98850   3.99444   4.00496   4.00891
 Alpha virt. eigenvalues --    4.03284   4.04263   4.04870   4.05588   4.06798
 Alpha virt. eigenvalues --    4.07781   4.08231   4.08967   4.09860   4.10875
 Alpha virt. eigenvalues --    4.11592   4.11902   4.12674   4.13564   4.14394
 Alpha virt. eigenvalues --    4.14957   4.15342   4.15910   4.16853   4.17559
 Alpha virt. eigenvalues --    4.18534   4.18958   4.20129   4.20302   4.21621
 Alpha virt. eigenvalues --    4.22180   4.23740   4.24293   4.25726   4.27139
 Alpha virt. eigenvalues --    4.27275   4.27849   4.28869   4.29735   4.31290
 Alpha virt. eigenvalues --    4.32574   4.33756   4.34916   4.35387   4.36338
 Alpha virt. eigenvalues --    4.36421   4.37573   4.37748   4.39702   4.40645
 Alpha virt. eigenvalues --    4.40763   4.42862   4.43099   4.44605   4.44917
 Alpha virt. eigenvalues --    4.45100   4.46400   4.47964   4.48938   4.49388
 Alpha virt. eigenvalues --    4.50643   4.51277   4.52154   4.52629   4.54724
 Alpha virt. eigenvalues --    4.55743   4.57193   4.57738   4.59877   4.62931
 Alpha virt. eigenvalues --    4.65529   4.66127   4.67695   4.68380   4.70170
 Alpha virt. eigenvalues --    4.72174   4.72988   4.74024   4.75632   4.77981
 Alpha virt. eigenvalues --    4.81489   4.81813   4.82997   4.85089   4.86180
 Alpha virt. eigenvalues --    4.87178   4.89379   4.89712   4.91513   4.92856
 Alpha virt. eigenvalues --    4.93722   4.96836   4.97964   5.03505   5.06396
 Alpha virt. eigenvalues --    5.09430   5.13819   5.16165   5.17911   5.18899
 Alpha virt. eigenvalues --    5.23050   5.24845   5.26715   5.28994   5.32549
 Alpha virt. eigenvalues --    5.34789   5.37357   5.40779   5.42355   5.45931
 Alpha virt. eigenvalues --    5.47949   5.51049   5.52866   5.58666   5.60209
 Alpha virt. eigenvalues --    5.61303   5.63876   5.64559   5.77098   5.82823
 Alpha virt. eigenvalues --    5.88392   5.92548   5.99172   6.05313   6.07362
 Alpha virt. eigenvalues --    6.11277   6.14859   6.20448   6.31769   6.38100
 Alpha virt. eigenvalues --    6.49931   6.62908   6.63933   6.64788   6.72866
 Alpha virt. eigenvalues --    6.77478   6.79979   6.87660   6.91971   6.97318
 Alpha virt. eigenvalues --    7.00797   7.08440   7.24423   7.31034   7.36381
[...]
 003585,0.00000858,-0.00006345,-0.00003694,0.00001287,0.00000443,-0.000
 04756,-0.00000540,0.00000335,0.00001189,-0.00000643,-0.00000692,0.0000
 0954,-0.00004589,-0.00002044,-0.00001884,-0.00025158,-0.00016678,0.000
 52584,0.00001039,0.00008630,-0.00001518,-0.00003015,0.00000519,0.00000
 273,-0.00001864,0.00001676,0.00000614,-0.00000433,-0.00000971,0.000031
 48,-0.00110932,-0.00066010,-0.00040976,-0.00257784,0.00199490,-0.00533
 157,-0.00542397,0.02549498,0.00730287,-0.09698427,0.10266901,0.0134350
 1,0.00994704,-0.01492534,-0.00297048,0.00071091,-0.00101642,-0.0046197
 6,0.00000207,0.00000024,0.00000102,0.00000092,-0.00000760,-0.00000217,
 -0.00000172,0.00000039,-0.00000284,0.00000228,0.00000609,0.00002675,-0
 .00000820,0.00000171,0.00000175,-0.00000868,0.00001352,0.00000507,0.00
 002151,-0.00002252,0.00000633,-0.00000617,-0.00000297,-0.00000120,0.00
 000258,-0.00000286,-0.00000490,0.00000136,0.00000806,0.00000265,0.0000
 0181,-0.00000074,-0.00000207,-0.00000010,-0.00000184,0.00000030,0.0000
 0375,0.00000136,-0.00000168,0.00000949,-0.00000521,-0.00000120,-0.0000
 0063,0.00000627,0.00000287,0.00001517,0.00002334,-0.00000237,0.0000010
 1,-0.00000004,-0.00000454,0.00002875,0.00000511,0.00002288,0.00010252,
 -0.00006614,0.00002773,-0.00000281,0.00000977,0.00001853,0.00003108,-0
 .00000228,-0.00000325,0.00000234,0.00001031,-0.00001509,0.00000391,-0.
 00000096,0.00000186,0.00001513,-0.00000359,0.00001579,0.00000720,-0.00
 001225,0.00001588,0.00000743,-0.00000327,0.00000005,-0.00000821,0.0000
 0948,0.00001139,0.00000148,0.00000116,-0.00000216,-0.00042342,0.001259
 16,0.00026225,-0.00011315,-0.00131081,0.00171475,0.09606023,-0.0000179
 6,-0.00001580,0.00001634,0.00004882,0.00006869,-0.00000199,0.00011992,
 0.00000569,-0.00003366,-0.00007734,-0.00001995,0.00003274,-0.00014629,
 0.00004711,0.00004820,0.00013479,-0.00007358,-0.00003653,-0.00005778,0
 .00001451,-0.00001091,-0.00003811,-0.00007737,0.00004269,0.00001775,-0
 .00010439,-0.00006909,-0.00001998,0.00003243,-0.00006906,0.00000380,-0
 .00000311,0.00001004,0.00000760,0.00000228,0.00001689,0.00001090,0.000
 01053,0.00001570,-0.00020444,-0.00015783,0.00043479,-0.00003970,0.0000
 7779,-0.00000565,0.00002568,0.00000987,-0.00000186,-0.00001388,0.00003
 471,-0.00002975,0.00000503,0.00000227,0.00001802,-0.00072093,0.0003108
 6,0.00015996,0.00257405,0.00261509,-0.00094782,0.00106598,-0.00378789,
 -0.00258728,0.10274175,-0.28650077,-0.05830557,0.00965097,-0.01320795,
 -0.00194833,-0.00169881,0.00037680,-0.00451223,-0.00000004,-0.00000298
 ,-0.00000512,0.00000437,-0.00001150,-0.00000045,-0.00000130,0.00000751
 ,0.00000259,0.00000216,0.00001078,0.00003650,-0.00001490,-0.00000393,0
 .00000609,-0.00002069,0.00001505,0.00000921,0.00002839,-0.00004080,-0.
 00003041,-0.00002058,-0.00000661,0.00000047,0.00002234,0.00000331,0.00
 001044,-0.00000164,0.00000175,-0.00000175,-0.00000030,0.00000217,-0.00
 000637,0.00000240,-0.00000576,0.00000695,0.00000147,-0.00000782,0.0000
 0645,-0.00001012,-0.00000136,-0.00000335,-0.00000396,0.00000093,-0.000
 00299,0.00000347,-0.00001199,0.00001071,-0.00000085,-0.00000163,-0.000
 01896,-0.00000096,0.00001477,-0.00002240,0.00002052,-0.00000152,0.0000
 1039,0.00000041,-0.00001065,-0.00001702,-0.00001669,0.00000361,0.00000
 227,-0.00001170,-0.00000699,0.00001898,0.00000006,-0.00000719,0.000002
 19,0.00002580,-0.00001851,-0.00000544,0.00001366,-0.00002293,0.0000414
 5,0.00000158,0.00000005,0.00000335,-0.00000107,0.00000406,-0.00000435,
 -0.00000383,-0.00000151,0.00000130,0.00003576,-0.00030964,-0.00018721,
 -0.00057643,-0.00002245,0.00155887,-0.11231595,0.30132795,-0.00000928,
 -0.00000677,0.00001338,0.00002938,0.00004331,-0.00001046,0.00003508,0.
 00005435,0.00000111,-0.00002612,-0.00002704,0.00000597,-0.00004438,-0.
 00000822,0.00000181,0.00004413,-0.00002774,-0.00000922,0.00001387,0.00
 001644,0.00000372,0.00001484,-0.00022788,0.00002093,-0.00013469,0.0002
 2583,0.00009529,0.00000379,-0.00000593,0.00004017,-0.00000032,0.000000
 84,-0.00000093,-0.00000069,-0.00000585,-0.00000034,0.00000343,-0.00001
 196,0.00000170,0.00051116,0.00045775,-0.00073802,-0.00002195,-0.000138
 81,0.00001852,-0.00001325,-0.00001212,0.00000404,-0.00000684,0.0000388
 6,-0.00004391,0.00001301,0.00001295,-0.00003782,-0.00036093,0.00031494
 ,-0.00109671,-0.00509480,-0.00141042,0.00406374,-0.00460874,0.01231719
 ,0.00604532,0.01341342,-0.05833354,-0.05729908,0.00897134,-0.01669585,
 0.00034061,-0.00479826,-0.00426856,0.00255890,0.00000146,-0.00000231,-
 0.00000220,0.00000282,-0.00000694,-0.00000178,0.00000409,-0.00000250,-
 0.00000132,-0.00000075,0.00000810,0.00003083,-0.00000450,0.00001190,0.
 00000164,-0.00000750,0.00000068,-0.00000051,0.00000268,-0.00001154,0.0
 0003300,0.00000380,0.00000642,0.00000411,-0.00001019,-0.00001612,-0.00
 002223,-0.00000102,-0.00000223,-0.00000306,0.00000424,0.00000295,-0.00
 000136,0.00000307,0.00000072,0.00000007,0.00000014,0.00000081,0.000000
 18,0.00000247,-0.00000199,-0.00000064,0.00000274,-0.00000022,-0.000001
 74,-0.00000309,0.00000222,0.00000066,0.00000339,0.00000729,0.00000099,
 -0.00001960,-0.00001894,0.00001654,0.00001895,-0.00005594,-0.00001488,
 0.00001707,0.00000371,0.00000640,0.00002583,-0.00000401,0.00000122,-0.
 00001912,-0.00001697,0.00000370,-0.00000157,0.00000691,0.00000478,0.00
 001519,-0.00001863,-0.00001683,0.00000583,-0.00001863,0.00002853,0.000
 00419,-0.00000314,0.00000311,0.00000844,-0.00001258,-0.00000950,-0.000
 00174,0.00000360,0.00000101,-0.00036414,0.00060478,0.00019224,0.002079
 91,0.00110417,-0.00218539,-0.01180515,0.06512900,0.05022463,0.00000636
 ,0.00000734,0.00001452,-0.00004876,0.00000501,-0.00006860,-0.00001768,
 0.00002519,0.00000076,0.00001760,0.00001026,-0.00000104,0.00008787,0.0
 0019337,-0.00001114,0.00007612,-0.00000030,-0.00004972,-0.00018796,-0.
 00011216,0.00017108,0.00014054,0.00001542,0.00004429,-0.00004969,0.000
 06898,0.00004655,0.00003034,-0.00002223,0.00004845,-0.00000797,0.00000
 204,-0.00001421,-0.00000971,-0.00000099,-0.00001047,-0.00001380,-0.000
 00520,-0.00001139,-0.00020600,-0.00039665,-0.00037197,0.00001420,0.000
 05866,-0.00010368,-0.00001507,0.00003228,0.00003999,-0.00007076,0.0000
 0886,0.00005653,-0.00001411,-0.00001618,0.00007426,0.00246543,0.003226
 89,-0.00133394,0.00046409,-0.00037230,0.00056292,0.00172695,-0.0015093
 0,-0.00414531,-0.00906045,0.00602265,-0.00450375,-0.27158119,0.0685902
 2,-0.10846582,-0.00710657,0.00128572,-0.00578817,0.00000593,0.00000680
 ,0.00000609,-0.00000224,-0.00000216,-0.00000078,-0.00000040,-0.0000066
 2,-0.00000774,-0.00001149,0.00000954,0.00000630,-0.00000676,0.00002935
 ,0.00000392,-0.00000044,0.00001979,-0.00000411,0.00001448,-0.00008436,
 0.00018090,-0.00003718,0.00002142,-0.00001755,0.00003033,0.00001149,-0
 .00015057,-0.00000152,0.00000234,0.00000315,0.00000213,-0.00000193,0.0
 0000063,0.00000253,0.00000585,-0.00000598,0.00000268,0.00000888,-0.000
 00446,0.00001559,0.00000583,0.00000351,0.00000116,0.00000336,0.0000041
 5,-0.00000163,0.00001030,-0.00000831,-0.00000794,-0.00000712,0.0000090
 8,0.00001025,-0.00000250,0.00001418,-0.00009494,0.00011859,0.00007152,
 -0.00001926,0.00001016,0.00002084,0.00002791,-0.00001595,0.00000316,-0
 .00000492,0.00000275,-0.00003932,0.00001470,-0.00000602,-0.00000107,-0
 .00001350,0.00002014,0.00002536,-0.00001244,0.00002939,-0.00004127,0.0
 0001299,-0.00000787,-0.00000057,-0.00001963,0.00002211,0.00001371,0.00
 000505,-0.00000018,-0.00000649,-0.00031514,-0.00015816,0.00036979,-0.0
 0052527,0.00036259,-0.00022960,-0.00033709,-0.00107597,0.00166122,0.28
 503922,-0.00004395,-0.00001357,-0.00003439,0.00013210,0.00005464,0.000
 14476,0.00045190,-0.00080853,-0.00000329,-0.00003819,0.00038146,-0.000
 06069,-0.00032470,0.00077645,0.00002427,-0.00000736,-0.00020676,0.0000
 3474,0.00011753,-0.00020164,-0.00014816,-0.00028087,0.00000650,-0.0000
 1147,0.00016890,-0.00002748,-0.00004752,-0.00003100,0.00002249,-0.0000
 7375,0.00001756,-0.00000534,0.00002681,0.00002238,0.00000055,0.0000294
 2,0.00002510,-0.00000292,0.00002956,0.00103897,0.00036227,0.00080590,-
 0.00001622,-0.00002782,0.00016197,-0.00001931,-0.00000543,-0.00003208,
 0.00003089,-0.00000750,0.00000201,0.00001059,0.00001726,-0.00008885,0.
 00311228,-0.00354018,-0.00371285,-0.00042102,-0.00141473,-0.00053773,-
 0.00106003,-0.00096082,-0.00467072,-0.01844163,0.00951797,-0.00808968,
 0.06839432,-0.07536840,0.02318114,0.02547559,-0.00312794,0.01227171,0.
 00000144,-0.00001200,-0.00001161,0.00001371,0.00000171,0.00000396,-0.0
 0001393,0.00002479,0.00001663,0.00001698,0.00000125,-0.00003531,-0.000
 00809,0.00003549,-0.00001181,-0.00001189,0.00006047,0.00001743,-0.0001
 7354,0.00005824,0.00040804,0.00015717,0.00017295,-0.00003059,-0.000200
 72,0.00002077,-0.00015688,0.00000337,-0.00000240,-0.00000140,-0.000005
 43,-0.00000092,0.00000576,-0.00000843,-0.00000951,0.00000196,-0.000007
 58,-0.00001960,0.00000674,-0.00003371,-0.00001810,-0.00000828,-0.00000
 138,0.00000111,-0.00000442,-0.00000437,-0.00001559,0.00001008,0.000006
 26,0.00000821,-0.00000328,-0.00002253,-0.00001352,-0.00002157,0.000197
 69,-0.00036333,-0.00004636,0.00002097,0.00000039,-0.00001517,-0.000008
 53,-0.00001453,0.00000935,-0.00000636,-0.00001273,0.00001058,0.0000010
 3,-0.00001745,-0.00000339,-0.00001877,0.00000436,-0.00002157,-0.000000
 91,0.00003134,0.00001469,-0.00001868,0.00000851,-0.00000323,0.00002079
 ,-0.00002688,-0.00002309,-0.00000369,-0.00000814,0.00000620,-0.0001386
 2,-0.00007351,0.00038654,-0.00091762,0.00031496,-0.00047375,-0.0003122
 6,0.00014227,0.00176625,-0.07570249,0.07400669,0.00003176,0.00001105,-
 0.00000781,-0.00005335,-0.00008684,0.00000867,-0.00020105,0.00028897,0
 .00000734,0.00007042,-0.00012322,0.00000298,0.00030701,-0.00024702,-0.
 00016477,-0.00029787,0.00023683,-0.00002053,0.00011056,-0.00004944,0.0
 0046065,-0.00000997,0.00010994,-0.00007208,-0.00000066,0.00004166,-0.0
 0002926,0.00001564,-0.00000555,0.00001484,-0.00000963,0.00000512,-0.00
 000569,-0.00000378,-0.00000381,-0.00000484,-0.00001642,0.00000002,-0.0
 0000630,0.00017624,-0.00010514,0.00016150,0.00000692,0.00000284,0.0000
 0608,0.00001764,-0.00002423,-0.00002681,0.00004128,-0.00001937,-0.0000
 5215,0.00000193,0.00000220,-0.00000875,-0.00166400,-0.00335104,0.00485
 172,0.00058106,-0.00042597,-0.00058782,-0.00387344,-0.00503800,0.00256
 322,-0.01643746,0.00681959,-0.00349741,-0.10858659,0.02330181,-0.09245
 945,0.00632022,-0.00240445,0.00634961,-0.00000616,0.00000062,0.0000038
 3,-0.00000891,0.00000892,-0.00000103,0.00000755,-0.00001198,-0.0000034
 5,0.00000739,-0.00001622,-0.00001567,0.00002916,0.00000521,-0.00000553
 ,0.00004534,-0.00010726,-0.00002208,0.00031817,0.00024959,-0.00039228,
 -0.00012783,-0.00009006,-0.00008203,-0.00003772,0.00001532,-0.00000358
 ,0.00000236,0.00000056,0.00000019,0.00000132,0.00000091,0.00000087,0.0
 0000050,0.00000259,-0.00000050,-0.00000024,0.00000148,-0.00000312,0.00
 000611,0.00000157,0.00000050,0.00000130,-0.00000271,0.00000138,0.00000
 192,0.00000579,-0.00000416,-0.00000499,0.00000149,-0.00000026,0.000017
 56,-0.00000697,0.00000463,0.00007088,-0.00000944,-0.00006193,-0.000002
 56,0.00000072,-0.00000133,-0.00001227,0.00001258,-0.00000804,0.0000119
 1,0.00001223,-0.00000034,-0.00000897,0.00001543,0.00000406,0.00000861,
 -0.00001264,-0.00000452,0.00001740,-0.00002959,0.00000536,-0.00000607,
 0.00000302,-0.00000179,0.00000097,-0.00000176,-0.00000026,-0.00000037,
 0.00000755,0.00000224,0.00037519,0.00039029,-0.00065147,-0.00086794,0.
 00029197,-0.00021817,0.00203815,0.00130482,-0.00210106,0.11995623,-0.0
 2248737,0.08846683,-0.00013270,-0.00007079,-0.00000771,0.00064281,-0.0
 0012780,0.00051188,0.00082280,-0.00228567,0.00016915,-0.00007006,0.000
 80375,-0.00012949,-0.00174331,0.00001514,0.00022860,-0.00054495,0.0001
 9813,0.00012374,0.00009880,-0.00006208,-0.00000672,-0.00005486,-0.0011
 4213,0.00024060,-0.00021421,0.00028970,-0.00016384,-0.00005712,0.00005
 454,-0.00023464,0.00001169,-0.00000465,0.00005833,0.00000164,-0.000015
 09,0.00004912,-0.00002151,-0.00003197,0.00003527,0.00010167,-0.0014413
 9,0.00131991,-0.00059798,0.00035502,-0.00034136,-0.00001321,0.00004000
 ,0.00004352,-0.00033587,0.00053269,-0.00011834,0.00007957,0.00004338,0
 .00028383,-0.00822359,-0.01802032,-0.01552095,-0.00246160,0.00338242,-
 0.00406338,-0.00076474,0.00067731,0.00036460,0.00123107,0.00399534,-0.
 00157065,0.01041940,0.00927628,0.00818734,-0.13514576,-0.09108564,-0.1
 0082985,0.00003185,-0.00002422,-0.00002820,0.00001423,-0.00002709,0.00
 000477,-0.00003729,0.00008621,0.00000510,0.00056364,-0.00022765,-0.000
 16258,0.00009730,0.00000631,-0.00006191,0.00008353,0.00001301,-0.00001
 064,0.00006267,0.00005034,0.00006644,0.00004786,0.00002943,-0.00002664
 ,-0.00004595,0.00004129,-0.00007867,0.00000312,0.00001670,-0.00000174,
 0.00001417,0.00000442,-0.00001026,0.00000491,-0.00001928,0.00001300,0.
 00000805,-0.00001113,0.00001579,-0.00000101,-0.00001503,-0.00001543,-0
 .00000541,0.00002472,-0.00000242,0.00000656,0.00002129,0.00001750,-0.0
 0000747,-0.00000030,-0.00000748,0.00001286,-0.00003116,0.00003180,0.00
 010123,-0.00018166,0.00005317,-0.00001516,0.00001301,0.00002616,0.0001
 0912,0.00000499,0.00002357,-0.00002582,-0.00004885,-0.00008288,0.00006
 476,-0.00005981,0.00002023,0.00030338,-0.00023074,-0.00001210,-0.00049
 783,-0.00003190,0.00149647,0.00008412,-0.00005563,0.00003648,-0.000051
 62,0.00005083,0.00002659,-0.00000698,0.00000792,-0.00001374,-0.0005885
 3,-0.00078800,-0.00086015,-0.00018742,-0.00029948,0.00042158,0.0003340
 6,0.00054278,0.00043763,-0.00041293,-0.00113371,0.00163959,0.13690802,
 0.00014659,0.00014238,-0.00043590,-0.00000709,-0.00283138,0.00169314,-
 0.00130167,0.00006582,0.00026387,0.00046823,-0.00004015,-0.00012402,-0
 .00054388,-0.00134291,0.00016186,-0.00021973,0.00020682,0.00003610,0.0
 0000928,0.00009808,-0.00005847,-0.00026553,-0.00343945,0.00137664,0.00
 081110,-0.00080599,-0.00007432,-0.00005771,-0.00006499,0.00009156,-0.0
 0000958,-0.00000708,-0.00002747,0.00000570,0.00001933,-0.00007084,0.00
 000675,0.00002829,-0.00002821,-0.00105009,0.00013698,0.00091072,-0.000
 19052,0.00020926,-0.00018728,-0.00003881,0.00009058,0.00003729,-0.0000
 0186,0.00047736,-0.00075068,0.00001183,-0.00001273,0.00016438,0.005353
 22,0.00946674,0.00637739,0.00326918,0.00126884,-0.00041609,0.00076203,
 -0.00039876,0.00061054,0.00409957,-0.00297066,-0.00239627,-0.01547577,
 -0.01363775,-0.01755482,-0.09197650,-0.16501660,-0.11571357,0.00002146
 ,-0.00001200,-0.00000247,-0.00006936,0.00017217,0.00002916,-0.00003685
 ,0.00004192,0.00000496,-0.00028865,-0.00191430,-0.00139558,0.00004992,
 -0.00002556,-0.00001322,0.00004184,-0.00000896,-0.00002037,0.00003232,
 -0.00002797,-0.00007853,-0.00002502,-0.00006547,0.00002752,0.00007724,
 -0.00002669,0.00006281,0.00001594,-0.00001181,0.00000996,-0.00002265,-
 0.00000903,0.00003110,-0.00001882,0.00001181,-0.00002128,-0.00002427,0
 .00001179,-0.00000401,-0.00001176,-0.00000738,0.00000152,0.00000780,0.
 00000275,0.00000206,-0.00000593,-0.00001217,-0.00002088,0.00000144,0.0
 0002069,0.00002674,-0.00002332,0.00000279,-0.00000830,-0.00013958,-0.0
 0002241,0.00002226,-0.00001817,-0.00003015,0.00000195,0.00002191,-0.00
 000973,0.00001534,-0.00001392,-0.00007142,-0.00002293,0.00005739,-0.00
 025496,-0.00005266,0.00012832,-0.00028707,0.00001159,0.00083246,-0.000
 08905,-0.00054463,0.00002647,-0.00002405,0.00001230,-0.00004475,0.0000
 3421,0.00002822,0.00001390,-0.00003202,-0.00001433,0.00045103,0.000423
 24,0.00037900,-0.00027809,-0.00012030,0.00029670,-0.00071238,-0.000698
 45,-0.00076856,-0.00074689,0.00029417,0.00150740,0.09689625,0.18110337
 ,0.00004606,0.00004239,-0.00013300,0.00046876,0.00033759,0.00131967,-0
 .00008528,0.00130767,0.00000313,-0.00005892,-0.00045502,0.00013661,-0.
 00041653,-0.00056045,-0.00015157,0.00039564,-0.00024687,-0.00019637,0.
 00004367,0.00002323,0.00006752,0.00007451,-0.00052221,-0.00090864,-0.0
 0137441,0.00099976,0.00018665,0.00008112,0.00007364,0.00007315,-0.0000
 2237,0.00001223,0.00000255,-0.00000693,-0.00001523,0.00003849,-0.00007
 498,-0.00003680,0.00000996,0.00154332,0.00127387,-0.00236891,0.0001683
 4,-0.00019734,0.00035351,-0.00001062,-0.00012122,-0.00001133,-0.000042
 46,0.00029014,-0.00114004,-0.00002790,0.00002125,-0.00015354,-0.005113
 77,-0.00799593,-0.00328130,-0.00448661,-0.00044498,0.00437824,0.000604
 55,0.00064437,-0.00016971,-0.00155575,-0.00313937,0.00531855,-0.004639
 30,-0.00333041,0.00009703,-0.09795264,-0.11343268,-0.14908395,0.000003
 56,-0.00004922,-0.00001892,-0.00000981,0.00001252,-0.00000509,0.000026
 15,-0.00004086,-0.00000665,-0.00030534,-0.00113004,-0.00017427,-0.0000
 3347,0.00001221,0.00002086,-0.00012537,0.00000310,0.00003523,0.0000396
 5,-0.00006155,-0.00004995,-0.00003936,0.00001340,-0.00001684,0.0000150
 6,0.00001128,-0.00002849,-0.00000291,-0.00000044,-0.00000595,0.0000234
 0,0.00001881,-0.00002175,0.00002739,-0.00000559,0.00000224,0.00001848,
 0.00000170,-0.00000123,0.00002322,0.00000867,0.00000261,0.00000034,-0.
 00000091,0.00000004,0.00002102,0.00001483,0.00001152,-0.00000471,-0.00
 001875,-0.00004905,0.00004981,0.00001319,0.00000305,0.00003337,0.00005
 456,-0.00007070,0.00001108,0.00002868,0.00001205,0.00001253,0.00000375
 ,-0.00000222,-0.00003273,0.00004428,0.00001115,-0.00006181,-0.00002956
 ,0.00003216,0.00012782,-0.00024120,-0.00004461,0.00224915,-0.00109441,
 -0.00161250,-0.00000702,0.00000904,0.00000674,0.00001588,-0.00001402,-
 0.00003729,-0.00000524,0.00001508,0.00000687,-0.00025728,-0.00043359,-
 0.00019379,0.00045284,0.00031383,-0.00079285,-0.00021711,-0.00009184,-
 0.00016987,0.00198391,0.00149376,-0.00239025,0.10840999,0.12661163,0.1
 5116103\\-0.00000153,-0.00000042,0.00000873,0.00000857,0.00000231,0.00
 001174,0.00001375,0.00002013,-0.00001629,-0.00002343,-0.00001395,0.000
 01222,0.00001076,-0.00000342,0.00000307,-0.00000347,-0.00000144,0.0000
 0219,0.00000403,0.00000122,0.00000203,-0.00000784,0.00000821,-0.000020
 67,0.00000461,-0.00000044,0.00000531,-0.00000334,-0.00000066,0.0000025
 0,0.00000695,-0.00000250,0.00000837,-0.00000719,-0.00000451,-0.0000021
 6,0.00000371,-0.00000340,-0.00000810,-0.00001073,0.00000484,0.00000380
 ,-0.00000467,-0.00001040,0.00000064,0.00000240,0.00000402,0.00000259,0
 .00000506,0.00000437,0.00000230,-0.00000089,-0.00000118,-0.00000345,0.
 00000021,-0.00001338,-0.00000858,0.00000570,0.00000282,0.00000229,0.00
 000350,0.00000122,0.00000357,-0.00000325,-0.00000012,-0.00000303,0.000
 00767,0.00000117,0.00000412,-0.00000300,0.00000003,-0.00000042,-0.0000
 0705,0.00000164,-0.00000176,-0.00000114,0.00000214,-0.00000498,0.00000
 393,-0.00000211,-0.00000324,-0.00000084,0.00000708,-0.00000162,0.00000
 246,0.00000055,0.00000016,-0.00000390,0.00000216,-0.00000065,0.0000014
 4,0.00000515,0.00000042,-0.00000178,0.00000228,0.00000100,0.00000176,0
 .00000154,-0.00000094,0.00000047,-0.00000076,-0.00000311,-0.00000058,0
 .00000265,0.00000159,0.,-0.00000407,0.00000262,0.00000102,-0.00000331,
 0.00000190,0.00000070,0.00000358,0.00000171,-0.00000520,-0.00000166,-0
 .00000229,0.00000032,-0.00000422,0.00000357,-0.00000057,0.00000006,-0.
 00000138,0.00000051,0.00000218,-0.00000267,0.00000099,0.00000187,-0.00
 000246,-0.00000026,-0.00000296,-0.00000337,0.00000111,-0.00000064,0.00
 000007,-0.00000204,0.00000049,0.00000129,-0.00000409,-0.00000024,-0.00
 000192,0.00000159,-0.00000254,-0.00000044,-0.00000406,0.00000218,0.000
 00205,0.00000088,-0.00000081,0.00000361,0.00000087,-0.00000116,-0.0000
 0041,-0.00000130,-0.00000310,-0.00000042,0.00000144,-0.00000260,0.0000
 0058,0.00000284,-0.00000064,-0.00000016,0.00000162,-0.00000013,-0.0000
 0042,0.00000012,0.00000221,0.00000177,0.00000116,-0.00000133,-0.000002
 86\\\@
 The archive entry for this job was punched.


 WAR ES EIN GOTT DER DIESE ZEICHEN SCHRIEB?
          - LUDWIG BOLTZMANN, QUOTING GOETHE, ABOUT MAXWELL'S EQUATIONS.
 Job cpu time:       5 days 14 hours 48 minutes 33.5 seconds.
 Elapsed time:       0 days  6 hours 44 minutes 45.1 seconds.
 File lengths (MBytes):  RWF=   3616 Int=      0 D2E=      0 Chk=     72 Scr=      1
 Normal termination of Gaussian 16 at Wed Jan  8 14:29:03 2025.
