 Entering Gaussian System, Link 0=g16
 Input=gjfs/data_set_12-nBA_dormant-40.gjf
 Output=gjfs/data_set_12-nBA_dormant-40.log
 Initial command:
 /usr/local/intel/g16/l1.exe "/scr/Gau-1126100.inp" -scrdir="/scr/"
 Entering Link 1 = /usr/local/intel/g16/l1.exe PID=   1126102.
  
 Copyright (c) 1988-2019, Gaussian, Inc.  All Rights Reserved.
  
 This is part of the Gaussian(R) 16 program.  It is based on
 the Gaussian(R) 09 system (copyright 2009, Gaussian, Inc.),
 the Gaussian(R) 03 system (copyright 2003, Gaussian, Inc.),
 the Gaussian(R) 98 system (copyright 1998, Gaussian, Inc.),
 the Gaussian(R) 94 system (copyright 1995, Gaussian, Inc.),
 the Gaussian 92(TM) system (copyright 1992, Gaussian, Inc.),
 the Gaussian 90(TM) system (copyright 1990, Gaussian, Inc.),
 the Gaussian 88(TM) system (copyright 1988, Gaussian, Inc.),
 the Gaussian 86(TM) system (copyright 1986, Carnegie Mellon
 University), and the Gaussian 82(TM) system (copyright 1983,
 Carnegie Mellon University). Gaussian is a federally registered
 trademark of Gaussian, Inc.
  
 This software contains proprietary and confidential information,
 including trade secrets, belonging to Gaussian, Inc.
  
 This software is provided under written license and may be
 used, copied, transmitted, or stored only in accord with that
 written license.
  
 The following legend is applicable only to US Government
 contracts under FAR:
  
                    RESTRICTED RIGHTS LEGEND
  
 Use, reproduction and disclosure by the US Government is
 subject to restrictions as set forth in subparagraphs (a)
 and (c) of the Commercial Computer Software - Restricted
 Rights clause in FAR 52.227-19.
  
 Gaussian, Inc.
 340 Quinnipiac St., Bldg. 40, Wallingford CT 06492
  
  
 ---------------------------------------------------------------
 Warning -- This program may not be used in any manner that
 competes with the business of Gaussian, Inc. or will provide
 assistance to any competitor of Gaussian, Inc.  The licensee
 of this program is prohibited from giving any competitor of
 Gaussian, Inc. access to this program.  By using this program,
 the user acknowledges that Gaussian, Inc. is engaged in the
 business of creating and licensing software in the field of
 computational chemistry and represents and warrants to the
 licensee that it is not a competitor of Gaussian, Inc. and that
 it will not use this program in any manner prohibited above.
 ---------------------------------------------------------------
  

 Cite this work as:
 Gaussian 16, Revision C.01,
 M. J. Frisch, G. W. Trucks, H. B. Schlegel, G. E. Scuseria, 
 M. A. Robb, J. R. Cheeseman, G. Scalmani, V. Barone, 
 G. A. Petersson, H. Nakatsuji, X. Li, M. Caricato, A. V. Marenich, 
 J. Bloino, B. G. Janesko, R. Gomperts, B. Mennucci, H. P. Hratchian, 
 J. V. Ortiz, A. F. Izmaylov, J. L. Sonnenberg, D. Williams-Young, 
 F. Ding, F. Lipparini, F. Egidi, J. Goings, B. Peng, A. Petrone, 
 T. Henderson, D. Ranasinghe, V. G. Zakrzewski, J. Gao, N. Rega, 
 G. Zheng, W. Liang, M. Hada, M. Ehara, K. Toyota, R. Fukuda, 
 J. Hasegawa, M. Ishida, T. Nakajima, Y. Honda, O. Kitao, H. Nakai, 
 T. Vreven, K. Throssell, J. A. Montgomery, Jr., J. E. Peralta, 
 F. Ogliaro, M. J. Bearpark, J. J. Heyd, E. N. Brothers, K. N. Kudin, 
 V. N. Staroverov, T. A. Keith, R. Kobayashi, J. Normand, 
 K. Raghavachari, A. P. Rendell, J. C. Burant, S. S. Iyengar, 
 J. Tomasi, M. Cossi, J. M. Millam, M. Klene, C. Adamo, R. Cammi, 
 J. W. Ochterski, R. L. Martin, K. Morokuma, O. Farkas, 
 J. B. Foresman, and D. J. Fox, Gaussian, Inc., Wallingford CT, 2019.
 
 ******************************************
 Gaussian 16:  ES64L-G16RevC.01  3-Jul-2019
                 8-Jan-2025 
 ******************************************
 %nprocshared=20
 Will use up to   20 processors via shared memory.
 %mem=30GB
 %chk=outputs/data_set_12-nBA_dormant-40.chk
 ----------------------------------
 #p M062X/DEF2TZVP opt freq pop=NBO
 ----------------------------------
 1/18=20,19=15,26=3,38=1/1,3;
 2/9=110,12=2,17=6,18=5,40=1/2;
 3/5=44,7=101,11=2,25=1,30=1,71=1,74=-55/1,2,3;
 4//1;
 5/5=2,38=5/2;
 6/7=2,8=2,9=2,10=2,28=1,40=1/1,7;
 7//1,2,3,16;
 1/18=20,19=15,26=3/3(2);
 2/9=110/2;
 99//99;
 2/9=110/2;
 3/5=44,7=101,11=2,25=1,30=1,71=1,74=-55/1,2,3;
 4/5=5,16=3,69=1/1;
 5/5=2,38=5/2;
 7//1,2,3,16;
 1/18=20,19=15,26=3/3(-5);
 2/9=110/2;
 6/7=2,8=2,9=2,10=2,19=2,28=1,40=1/1,7;
 99/9=1/99;
 Leave Link    1 at Wed Jan  8 05:27:54 2025, MaxMem=  4026531840 cpu:               0.9 elap:               0.1
 (Enter /usr/local/intel/g16/l101.exe)
 --------------------------
 data_set_12-nBA_dormant-40
 --------------------------
 Symbolic Z-matrix:
 Charge =  0 Multiplicity = 1
 C                    -1.16542   3.01594   0.57127 
 C                    -1.30264   1.50096   0.51775 
 C                    -2.65535   1.07295  -0.05108 
 O                    -3.40996   1.77602  -0.72866 
 O                    -2.93284  -0.22666   0.26985 
 C                    -4.14539  -0.83827  -0.30193 
 C                    -4.13798  -2.29815   0.12418 
 O                    -0.30532   0.92109  -0.39228 
 N                     0.70401   0.16905   0.3225 
 C                     0.57746  -1.3252    0.10926 
 C                     2.06332  -1.78966   0.10211 
 C                     2.8749   -0.54153   0.53566 
 C                     2.06934   0.65112  -0.05513 
 C                     2.38146   1.96761   0.66362 
 C                     2.28752   0.81765  -1.574 
 C                    -0.1388   -1.70189  -1.20098 
 C                    -0.18668  -1.91261   1.30914 
 C                     4.27711  -0.57143   0.10882 
 N                     5.40089  -0.59449  -0.23481 
 H                    -1.97132   3.45423   1.16854 
 H                    -1.22118   3.43586  -0.43584 
 H                    -0.20821   3.28315   1.02457 
 H                    -1.16274   1.04088   1.49871 
 H                    -4.11036  -0.72039  -1.38919 
 H                    -5.01694  -0.29606   0.07628 
 H                    -3.2453   -2.80482  -0.25356 
 H                    -5.02238  -2.80526  -0.27453 
 H                    -4.14966  -2.38268   1.21426 
 H                     2.36498  -2.10579  -0.90036 
 H                     2.22811  -2.62932   0.78089 
 H                     2.85399  -0.45298   1.62796 
 H                     2.10055   1.90229   1.71967 
 H                     1.82785   2.79002   0.20096 
 H                     3.45003   2.19861   0.59056 
 H                     2.26877  -0.13608  -2.10937 
 H                     3.25783   1.28813  -1.76168 
 H                     1.50068   1.457    -1.98164 
 H                    -1.18426  -1.38717  -1.16751 
 H                    -0.10266  -2.79049  -1.32667 
 H                     0.32918  -1.23437  -2.07129 
 H                     0.33196  -1.67478   2.24418 
 H                    -0.26351  -3.00305   1.21684 
 H                    -1.19788  -1.49735   1.35121 
 
 ITRead=  0  0  0  0  0  0  0  0  0  0  0  0  0  0  0  0  0  0  0  0
 ITRead=  0  0  0  0  0  0  0  0  0  0  0  0  0  0  0  0  0  0  0  0
 ITRead=  0  0  0
 MicOpt= -1 -1 -1 -1 -1 -1 -1 -1 -1 -1 -1 -1 -1 -1 -1 -1 -1 -1 -1 -1
 MicOpt= -1 -1 -1 -1 -1 -1 -1 -1 -1 -1 -1 -1 -1 -1 -1 -1 -1 -1 -1 -1
 MicOpt= -1 -1 -1
 NAtoms=     43 NQM=       43 NQMF=       0 NMMI=      0 NMMIF=      0
                NMic=       0 NMicF=      0.
                    Isotopes and Nuclear Properties:
 (Nuclear quadrupole moments (NQMom) in fm**2, nuclear magnetic moments (NMagM)
  in nuclear magnetons)

  Atom         1           2           3           4           5           6           7           8           9          10
 IAtWgt=          12          12          12          16          16          12          12          16          14          12
 AtmWgt=  12.0000000  12.0000000  12.0000000  15.9949146  15.9949146  12.0000000  12.0000000  15.9949146  14.0030740  12.0000000
 NucSpn=           0           0           0           0           0           0           0           0           2           0
 AtZEff=  -0.0000000  -0.0000000  -0.0000000  -0.0000000  -0.0000000  -0.0000000  -0.0000000  -0.0000000  -0.0000000  -0.0000000
 NQMom=    0.0000000   0.0000000   0.0000000   0.0000000   0.0000000   0.0000000   0.0000000   0.0000000   2.0440000   0.0000000
 NMagM=    0.0000000   0.0000000   0.0000000   0.0000000   0.0000000   0.0000000   0.0000000   0.0000000   0.4037610   0.0000000
 AtZNuc=   6.0000000   6.0000000   6.0000000   8.0000000   8.0000000   6.0000000   6.0000000   8.0000000   7.0000000   6.0000000

  Atom        11          12          13          14          15          16          17          18          19          20
 IAtWgt=          12          12          12          12          12          12          12          12          14           1
 AtmWgt=  12.0000000  12.0000000  12.0000000  12.0000000  12.0000000  12.0000000  12.0000000  12.0000000  14.0030740   1.0078250
 NucSpn=           0           0           0           0           0           0           0           0           2           1
 AtZEff=  -0.0000000  -0.0000000  -0.0000000  -0.0000000  -0.0000000  -0.0000000  -0.0000000  -0.0000000  -0.0000000  -0.0000000
 NQMom=    0.0000000   0.0000000   0.0000000   0.0000000   0.0000000   0.0000000   0.0000000   0.0000000   2.0440000   0.0000000
 NMagM=    0.0000000   0.0000000   0.0000000   0.0000000   0.0000000   0.0000000   0.0000000   0.0000000   0.4037610   2.7928460
 AtZNuc=   6.0000000   6.0000000   6.0000000   6.0000000   6.0000000   6.0000000   6.0000000   6.0000000   7.0000000   1.0000000

  Atom        21          22          23          24          25          26          27          28          29          30
 IAtWgt=           1           1           1           1           1           1           1           1           1           1
 AtmWgt=   1.0078250   1.0078250   1.0078250   1.0078250   1.0078250   1.0078250   1.0078250   1.0078250   1.0078250   1.0078250
 NucSpn=           1           1           1           1           1           1           1           1           1           1
 AtZEff=  -0.0000000  -0.0000000  -0.0000000  -0.0000000  -0.0000000  -0.0000000  -0.0000000  -0.0000000  -0.0000000  -0.0000000
 NQMom=    0.0000000   0.0000000   0.0000000   0.0000000   0.0000000   0.0000000   0.0000000   0.0000000   0.0000000   0.0000000
 NMagM=    2.7928460   2.7928460   2.7928460   2.7928460   2.7928460   2.7928460   2.7928460   2.7928460   2.7928460   2.7928460
 AtZNuc=   1.0000000   1.0000000   1.0000000   1.0000000   1.0000000   1.0000000   1.0000000   1.0000000   1.0000000   1.0000000

  Atom        31          32          33          34          35          36          37          38          39          40
 IAtWgt=           1           1           1           1           1           1           1           1           1           1
 AtmWgt=   1.0078250   1.0078250   1.0078250   1.0078250   1.0078250   1.0078250   1.0078250   1.0078250   1.0078250   1.0078250
 NucSpn=           1           1           1           1           1           1           1           1           1           1
 AtZEff=  -0.0000000  -0.0000000  -0.0000000  -0.0000000  -0.0000000  -0.0000000  -0.0000000  -0.0000000  -0.0000000  -0.0000000
 NQMom=    0.0000000   0.0000000   0.0000000   0.0000000   0.0000000   0.0000000   0.0000000   0.0000000   0.0000000   0.0000000
 NMagM=    2.7928460   2.7928460   2.7928460   2.7928460   2.7928460   2.7928460   2.7928460   2.7928460   2.7928460   2.7928460
 AtZNuc=   1.0000000   1.0000000   1.0000000   1.0000000   1.0000000   1.0000000   1.0000000   1.0000000   1.0000000   1.0000000

  Atom        41          42          43
 IAtWgt=           1           1           1
 AtmWgt=   1.0078250   1.0078250   1.0078250
 NucSpn=           1           1           1
 AtZEff=  -0.0000000  -0.0000000  -0.0000000
 NQMom=    0.0000000   0.0000000   0.0000000
 NMagM=    2.7928460   2.7928460   2.7928460
 AtZNuc=   1.0000000   1.0000000   1.0000000
 Leave Link  101 at Wed Jan  8 05:27:55 2025, MaxMem=  4026531840 cpu:              22.3 elap:               1.1
 (Enter /usr/local/intel/g16/l103.exe)

 GradGradGradGradGradGradGradGradGradGradGradGradGradGradGradGradGradGrad
 Berny optimization.
 Initialization pass.
                           ----------------------------
                           !    Initial Parameters    !
                           ! (Angstroms and Degrees)  !
 --------------------------                            --------------------------
 ! Name  Definition              Value          Derivative Info.                !
 --------------------------------------------------------------------------------
 ! R1    R(1,2)                  1.5221         estimate D2E/DX2                !
 ! R2    R(1,20)                 1.0947         estimate D2E/DX2                !
 ! R3    R(1,21)                 1.0926         estimate D2E/DX2                !
 ! R4    R(1,22)                 1.0923         estimate D2E/DX2                !
 ! R5    R(2,3)                  1.5286         estimate D2E/DX2                !
 ! R6    R(2,8)                  1.4694         estimate D2E/DX2                !
 ! R7    R(2,23)                 1.0925         estimate D2E/DX2                !
 ! R8    R(3,4)                  1.234          estimate D2E/DX2                !
 ! R9    R(3,5)                  1.3671         estimate D2E/DX2                !
 ! R10   R(5,6)                  1.4735         estimate D2E/DX2                !
 ! R11   R(6,7)                  1.5208         estimate D2E/DX2                !
 ! R12   R(6,24)                 1.0942         estimate D2E/DX2                !
 ! R13   R(6,25)                 1.0939         estimate D2E/DX2                !
 ! R14   R(7,26)                 1.0937         estimate D2E/DX2                !
 ! R15   R(7,27)                 1.0947         estimate D2E/DX2                !
 ! R16   R(7,28)                 1.0934         estimate D2E/DX2                !
 ! R17   R(8,9)                  1.4475         estimate D2E/DX2                !
 ! R18   R(9,10)                 1.5147         estimate D2E/DX2                !
 ! R19   R(9,13)                 1.4964         estimate D2E/DX2                !
 ! R20   R(10,11)                1.5568         estimate D2E/DX2                !
 ! R21   R(10,16)                1.54           estimate D2E/DX2                !
 ! R22   R(10,17)                1.539          estimate D2E/DX2                !
 ! R23   R(11,12)                1.5506         estimate D2E/DX2                !
 ! R24   R(11,29)                1.0936         estimate D2E/DX2                !
 ! R25   R(11,30)                1.0922         estimate D2E/DX2                !
 ! R26   R(12,13)                1.5557         estimate D2E/DX2                !
 ! R27   R(12,18)                1.466          estimate D2E/DX2                !
 ! R28   R(12,31)                1.0961         estimate D2E/DX2                !
 ! R29   R(13,14)                1.532          estimate D2E/DX2                !
 ! R30   R(13,15)                1.5435         estimate D2E/DX2                !
 ! R31   R(14,32)                1.0947         estimate D2E/DX2                !
 ! R32   R(14,33)                1.094          estimate D2E/DX2                !
 ! R33   R(14,34)                1.0957         estimate D2E/DX2                !
 ! R34   R(15,35)                1.0939         estimate D2E/DX2                !
 ! R35   R(15,36)                1.0946         estimate D2E/DX2                !
 ! R36   R(15,37)                1.0927         estimate D2E/DX2                !
 ! R37   R(16,38)                1.0923         estimate D2E/DX2                !
 ! R38   R(16,39)                1.0964         estimate D2E/DX2                !
 ! R39   R(16,40)                1.0932         estimate D2E/DX2                !
 ! R40   R(17,41)                1.0954         estimate D2E/DX2                !
 ! R41   R(17,42)                1.097          estimate D2E/DX2                !
 ! R42   R(17,43)                1.094          estimate D2E/DX2                !
 ! R43   R(18,19)                1.1754         estimate D2E/DX2                !
 ! A1    A(2,1,20)             110.5686         estimate D2E/DX2                !
 ! A2    A(2,1,21)             110.2139         estimate D2E/DX2                !
 ! A3    A(2,1,22)             109.699          estimate D2E/DX2                !
 ! A4    A(20,1,21)            108.1486         estimate D2E/DX2                !
 ! A5    A(20,1,22)            108.7094         estimate D2E/DX2                !
 ! A6    A(21,1,22)            109.4648         estimate D2E/DX2                !
 ! A7    A(1,2,3)              111.8114         estimate D2E/DX2                !
 ! A8    A(1,2,8)              110.6942         estimate D2E/DX2                !
 ! A9    A(1,2,23)             112.0885         estimate D2E/DX2                !
 ! A10   A(3,2,8)              105.0506         estimate D2E/DX2                !
 ! A11   A(3,2,23)             109.2404         estimate D2E/DX2                !
 ! A12   A(8,2,23)             107.6379         estimate D2E/DX2                !
 ! A13   A(2,3,4)              125.8689         estimate D2E/DX2                !
 ! A14   A(2,3,5)              111.0047         estimate D2E/DX2                !
 ! A15   A(4,3,5)              123.119          estimate D2E/DX2                !
 ! A16   A(3,5,6)              118.0675         estimate D2E/DX2                !
 ! A17   A(5,6,7)              106.6012         estimate D2E/DX2                !
 ! A18   A(5,6,24)             108.331          estimate D2E/DX2                !
 ! A19   A(5,6,25)             108.4049         estimate D2E/DX2                !
 ! A20   A(7,6,24)             112.4371         estimate D2E/DX2                !
 ! A21   A(7,6,25)             112.5085         estimate D2E/DX2                !
 ! A22   A(24,6,25)            108.4007         estimate D2E/DX2                !
 ! A23   A(6,7,26)             110.6035         estimate D2E/DX2                !
 ! A24   A(6,7,27)             109.7982         estimate D2E/DX2                !
 ! A25   A(6,7,28)             110.7006         estimate D2E/DX2                !
 ! A26   A(26,7,27)            108.6031         estimate D2E/DX2                !
 ! A27   A(26,7,28)            108.4943         estimate D2E/DX2                !
 ! A28   A(27,7,28)            108.5827         estimate D2E/DX2                !
 ! A29   A(2,8,9)              111.8691         estimate D2E/DX2                !
 ! A30   A(8,9,10)             112.6289         estimate D2E/DX2                !
 ! A31   A(8,9,13)             110.1354         estimate D2E/DX2                !
 ! A32   A(10,9,13)            111.0094         estimate D2E/DX2                !
 ! A33   A(9,10,11)            102.4285         estimate D2E/DX2                !
 ! A34   A(9,10,16)            113.5739         estimate D2E/DX2                !
 ! A35   A(9,10,17)            107.9536         estimate D2E/DX2                !
 ! A36   A(11,10,16)           111.5329         estimate D2E/DX2                !
 ! A37   A(11,10,17)           111.3209         estimate D2E/DX2                !
 ! A38   A(16,10,17)           109.8177         estimate D2E/DX2                !
 ! A39   A(10,11,12)           104.9583         estimate D2E/DX2                !
 ! A40   A(10,11,29)           110.7161         estimate D2E/DX2                !
 ! A41   A(10,11,30)           111.7469         estimate D2E/DX2                !
 ! A42   A(12,11,29)           110.1584         estimate D2E/DX2                !
 ! A43   A(12,11,30)           111.4739         estimate D2E/DX2                !
 ! A44   A(29,11,30)           107.809          estimate D2E/DX2                !
 ! A45   A(11,12,13)           103.8791         estimate D2E/DX2                !
 ! A46   A(11,12,18)           113.7516         estimate D2E/DX2                !
 ! A47   A(11,12,31)           109.4915         estimate D2E/DX2                !
 ! A48   A(13,12,18)           113.5987         estimate D2E/DX2                !
 ! A49   A(13,12,31)           107.8559         estimate D2E/DX2                !
 ! A50   A(18,12,31)           108.0618         estimate D2E/DX2                !
 ! A51   A(9,13,12)             97.4494         estimate D2E/DX2                !
 ! A52   A(9,13,14)            110.1407         estimate D2E/DX2                !
 ! A53   A(9,13,15)            114.3355         estimate D2E/DX2                !
 ! A54   A(12,13,14)           112.0305         estimate D2E/DX2                !
 ! A55   A(12,13,15)           112.5328         estimate D2E/DX2                !
 ! A56   A(14,13,15)           109.8859         estimate D2E/DX2                !
 ! A57   A(13,14,32)           110.4272         estimate D2E/DX2                !
 ! A58   A(13,14,33)           110.1497         estimate D2E/DX2                !
 ! A59   A(13,14,34)           110.3997         estimate D2E/DX2                !
 ! A60   A(32,14,33)           108.8422         estimate D2E/DX2                !
 ! A61   A(32,14,34)           109.096          estimate D2E/DX2                !
 ! A62   A(33,14,34)           107.8677         estimate D2E/DX2                !
 ! A63   A(13,15,35)           112.6516         estimate D2E/DX2                !
 ! A64   A(13,15,36)           109.9029         estimate D2E/DX2                !
 ! A65   A(13,15,37)           109.1749         estimate D2E/DX2                !
 ! A66   A(35,15,36)           107.8198         estimate D2E/DX2                !
 ! A67   A(35,15,37)           108.373          estimate D2E/DX2                !
 ! A68   A(36,15,37)           108.8369         estimate D2E/DX2                !
 ! A69   A(10,16,38)           110.4019         estimate D2E/DX2                !
 ! A70   A(10,16,39)           108.9683         estimate D2E/DX2                !
 ! A71   A(10,16,40)           111.9399         estimate D2E/DX2                !
 ! A72   A(38,16,39)           108.7314         estimate D2E/DX2                !
 ! A73   A(38,16,40)           108.1142         estimate D2E/DX2                !
 ! A74   A(39,16,40)           108.6169         estimate D2E/DX2                !
 ! A75   A(10,17,41)           110.3382         estimate D2E/DX2                !
 ! A76   A(10,17,42)           110.399          estimate D2E/DX2                !
 ! A77   A(10,17,43)           110.1233         estimate D2E/DX2                !
 ! A78   A(41,17,42)           108.7113         estimate D2E/DX2                !
 ! A79   A(41,17,43)           108.809          estimate D2E/DX2                !
 ! A80   A(42,17,43)           108.4095         estimate D2E/DX2                !
 ! A81   L(12,18,19,34,-1)     179.9611         estimate D2E/DX2                !
 ! A82   L(12,18,19,34,-2)     180.0801         estimate D2E/DX2                !
 ! D1    D(20,1,2,3)            57.5122         estimate D2E/DX2                !
 ! D2    D(20,1,2,8)           174.2663         estimate D2E/DX2                !
 ! D3    D(20,1,2,23)          -65.5446         estimate D2E/DX2                !
 ! D4    D(21,1,2,3)           -62.0058         estimate D2E/DX2                !
 ! D5    D(21,1,2,8)            54.7483         estimate D2E/DX2                !
 ! D6    D(21,1,2,23)          174.9375         estimate D2E/DX2                !
 ! D7    D(22,1,2,3)           177.397          estimate D2E/DX2                !
 ! D8    D(22,1,2,8)           -65.8489         estimate D2E/DX2                !
 ! D9    D(22,1,2,23)           54.3402         estimate D2E/DX2                !
 ! D10   D(1,2,3,4)             19.2397         estimate D2E/DX2                !
 ! D11   D(1,2,3,5)           -161.7302         estimate D2E/DX2                !
 ! D12   D(8,2,3,4)           -100.8769         estimate D2E/DX2                !
 ! D13   D(8,2,3,5)             78.1531         estimate D2E/DX2                !
 ! D14   D(23,2,3,4)           143.8979         estimate D2E/DX2                !
 ! D15   D(23,2,3,5)           -37.0721         estimate D2E/DX2                !
 ! D16   D(1,2,8,9)            110.5859         estimate D2E/DX2                !
 ! D17   D(3,2,8,9)           -128.5593         estimate D2E/DX2                !
 ! D18   D(23,2,8,9)           -12.2277         estimate D2E/DX2                !
 ! D19   D(2,3,5,6)           -174.6528         estimate D2E/DX2                !
 ! D20   D(4,3,5,6)              4.4087         estimate D2E/DX2                !
 ! D21   D(3,5,6,7)            175.4053         estimate D2E/DX2                !
 ! D22   D(3,5,6,24)            54.1845         estimate D2E/DX2                !
 ! D23   D(3,5,6,25)           -63.2482         estimate D2E/DX2                !
 ! D24   D(5,6,7,26)           -60.1945         estimate D2E/DX2                !
 ! D25   D(5,6,7,27)           179.9672         estimate D2E/DX2                !
 ! D26   D(5,6,7,28)            60.0929         estimate D2E/DX2                !
 ! D27   D(24,6,7,26)           58.3716         estimate D2E/DX2                !
 ! D28   D(24,6,7,27)          -61.4666         estimate D2E/DX2                !
 ! D29   D(24,6,7,28)          178.659          estimate D2E/DX2                !
 ! D30   D(25,6,7,26)         -178.8912         estimate D2E/DX2                !
 ! D31   D(25,6,7,27)           61.2705         estimate D2E/DX2                !
 ! D32   D(25,6,7,28)          -58.6039         estimate D2E/DX2                !
 ! D33   D(2,8,9,10)           108.8304         estimate D2E/DX2                !
 ! D34   D(2,8,9,13)          -126.6599         estimate D2E/DX2                !
 ! D35   D(8,9,10,11)          144.6791         estimate D2E/DX2                !
 ! D36   D(8,9,10,16)           24.2661         estimate D2E/DX2                !
 ! D37   D(8,9,10,17)          -97.7541         estimate D2E/DX2                !
 ! D38   D(13,9,10,11)          20.6508         estimate D2E/DX2                !
 ! D39   D(13,9,10,16)         -99.7622         estimate D2E/DX2                !
 ! D40   D(13,9,10,17)         138.2176         estimate D2E/DX2                !
 ! D41   D(8,9,13,12)         -165.7308         estimate D2E/DX2                !
 ! D42   D(8,9,13,14)           77.4685         estimate D2E/DX2                !
 ! D43   D(8,9,13,15)          -46.8298         estimate D2E/DX2                !
 ! D44   D(10,9,13,12)         -40.2942         estimate D2E/DX2                !
 ! D45   D(10,9,13,14)        -157.0948         estimate D2E/DX2                !
 ! D46   D(10,9,13,15)          78.6069         estimate D2E/DX2                !
 ! D47   D(9,10,11,12)           8.6655         estimate D2E/DX2                !
 ! D48   D(9,10,11,29)        -110.1768         estimate D2E/DX2                !
 ! D49   D(9,10,11,30)         129.6311         estimate D2E/DX2                !
 ! D50   D(16,10,11,12)        130.4828         estimate D2E/DX2                !
 ! D51   D(16,10,11,29)         11.6405         estimate D2E/DX2                !
 ! D52   D(16,10,11,30)       -108.5515         estimate D2E/DX2                !
 ! D53   D(17,10,11,12)       -106.4757         estimate D2E/DX2                !
 ! D54   D(17,10,11,29)        134.682          estimate D2E/DX2                !
 ! D55   D(17,10,11,30)         14.4899         estimate D2E/DX2                !
 ! D56   D(9,10,16,38)         -66.1028         estimate D2E/DX2                !
 ! D57   D(9,10,16,39)         174.5478         estimate D2E/DX2                !
 ! D58   D(9,10,16,40)          54.3906         estimate D2E/DX2                !
 ! D59   D(11,10,16,38)        178.7715         estimate D2E/DX2                !
 ! D60   D(11,10,16,39)         59.422          estimate D2E/DX2                !
 ! D61   D(11,10,16,40)        -60.7351         estimate D2E/DX2                !
 ! D62   D(17,10,16,38)         54.8767         estimate D2E/DX2                !
 ! D63   D(17,10,16,39)        -64.4727         estimate D2E/DX2                !
 ! D64   D(17,10,16,40)        175.3701         estimate D2E/DX2                !
 ! D65   D(9,10,17,41)         -57.3634         estimate D2E/DX2                !
 ! D66   D(9,10,17,42)        -177.5531         estimate D2E/DX2                !
 ! D67   D(9,10,17,43)          62.7705         estimate D2E/DX2                !
 ! D68   D(11,10,17,41)         54.3107         estimate D2E/DX2                !
 ! D69   D(11,10,17,42)        -65.879          estimate D2E/DX2                !
 ! D70   D(11,10,17,43)        174.4446         estimate D2E/DX2                !
 ! D71   D(16,10,17,41)        178.329          estimate D2E/DX2                !
 ! D72   D(16,10,17,42)         58.1393         estimate D2E/DX2                !
 ! D73   D(16,10,17,43)        -61.5371         estimate D2E/DX2                !
 ! D74   D(10,11,12,13)        -33.3907         estimate D2E/DX2                !
 ! D75   D(10,11,12,18)       -157.3951         estimate D2E/DX2                !
 ! D76   D(10,11,12,31)         81.6021         estimate D2E/DX2                !
 ! D77   D(29,11,12,13)         85.8261         estimate D2E/DX2                !
 ! D78   D(29,11,12,18)        -38.1783         estimate D2E/DX2                !
 ! D79   D(29,11,12,31)       -159.1811         estimate D2E/DX2                !
 ! D80   D(30,11,12,13)       -154.5359         estimate D2E/DX2                !
 ! D81   D(30,11,12,18)         81.4597         estimate D2E/DX2                !
 ! D82   D(30,11,12,31)        -39.5431         estimate D2E/DX2                !
 ! D83   D(11,12,13,9)          43.5733         estimate D2E/DX2                !
 ! D84   D(11,12,13,14)        158.8834         estimate D2E/DX2                !
 ! D85   D(11,12,13,15)        -76.7039         estimate D2E/DX2                !
 ! D86   D(18,12,13,9)         167.6769         estimate D2E/DX2                !
 ! D87   D(18,12,13,14)        -77.0129         estimate D2E/DX2                !
 ! D88   D(18,12,13,15)         47.3997         estimate D2E/DX2                !
 ! D89   D(31,12,13,9)         -72.5749         estimate D2E/DX2                !
 ! D90   D(31,12,13,14)         42.7353         estimate D2E/DX2                !
 ! D91   D(31,12,13,15)        167.148          estimate D2E/DX2                !
 ! D92   D(9,13,14,32)          45.4718         estimate D2E/DX2                !
 ! D93   D(9,13,14,33)         -74.7775         estimate D2E/DX2                !
 ! D94   D(9,13,14,34)         166.2002         estimate D2E/DX2                !
 ! D95   D(12,13,14,32)        -61.8284         estimate D2E/DX2                !
 ! D96   D(12,13,14,33)        177.9224         estimate D2E/DX2                !
 ! D97   D(12,13,14,34)         58.9            estimate D2E/DX2                !
 ! D98   D(15,13,14,32)        172.2995         estimate D2E/DX2                !
 ! D99   D(15,13,14,33)         52.0503         estimate D2E/DX2                !
 ! D100  D(15,13,14,34)        -66.9721         estimate D2E/DX2                !
 ! D101  D(9,13,15,35)         -66.7659         estimate D2E/DX2                !
 ! D102  D(9,13,15,36)         172.9853         estimate D2E/DX2                !
 ! D103  D(9,13,15,37)          53.6804         estimate D2E/DX2                !
 ! D104  D(12,13,15,35)         43.2141         estimate D2E/DX2                !
 ! D105  D(12,13,15,36)        -77.0347         estimate D2E/DX2                !
 ! D106  D(12,13,15,37)        163.6604         estimate D2E/DX2                !
 ! D107  D(14,13,15,35)        168.8001         estimate D2E/DX2                !
 ! D108  D(14,13,15,36)         48.5512         estimate D2E/DX2                !
 ! D109  D(14,13,15,37)        -70.7536         estimate D2E/DX2                !
 --------------------------------------------------------------------------------
 Trust Radius=3.00D-01 FncErr=1.00D-07 GrdErr=1.00D-06 EigMax=2.50D+02 EigMin=1.00D-04
 Number of steps in this run=    244 maximum allowed number of steps=    258.
 GradGradGradGradGradGradGradGradGradGradGradGradGradGradGradGradGradGrad

 Leave Link  103 at Wed Jan  8 05:27:55 2025, MaxMem=  4026531840 cpu:               0.6 elap:               0.1
 (Enter /usr/local/intel/g16/l202.exe)
                          Input orientation:                          
 ---------------------------------------------------------------------
 Center     Atomic      Atomic             Coordinates (Angstroms)
 Number     Number       Type             X           Y           Z
 ---------------------------------------------------------------------
      1          6           0       -1.165419    3.015936    0.571269
      2          6           0       -1.302636    1.500961    0.517745
      3          6           0       -2.655350    1.072948   -0.051080
      4          8           0       -3.409958    1.776019   -0.728664
      5          8           0       -2.932837   -0.226657    0.269847
      6          6           0       -4.145393   -0.838273   -0.301929
      7          6           0       -4.137982   -2.298148    0.124176
      8          8           0       -0.305324    0.921088   -0.392284
      9          7           0        0.704011    0.169046    0.322495
     10          6           0        0.577458   -1.325204    0.109256
     11          6           0        2.063324   -1.789661    0.102111
     12          6           0        2.874900   -0.541525    0.535657
     13          6           0        2.069337    0.651116   -0.055131
     14          6           0        2.381456    1.967611    0.663617
     15          6           0        2.287518    0.817654   -1.573995
     16          6           0       -0.138803   -1.701885   -1.200983
     17          6           0       -0.186676   -1.912611    1.309139
     18          6           0        4.277114   -0.571431    0.108819
     19          7           0        5.400893   -0.594489   -0.234809
     20          1           0       -1.971315    3.454231    1.168545
     21          1           0       -1.221177    3.435858   -0.435838
     22          1           0       -0.208208    3.283153    1.024566
     23          1           0       -1.162742    1.040876    1.498710
     24          1           0       -4.110355   -0.720392   -1.389191
     25          1           0       -5.016940   -0.296060    0.076275
     26          1           0       -3.245301   -2.804820   -0.253557
     27          1           0       -5.022379   -2.805256   -0.274527
     28          1           0       -4.149661   -2.382676    1.214264
     29          1           0        2.364985   -2.105793   -0.900364
     30          1           0        2.228109   -2.629324    0.780890
     31          1           0        2.853986   -0.452977    1.627960
     32          1           0        2.100546    1.902288    1.719670
     33          1           0        1.827848    2.790023    0.200958
     34          1           0        3.450025    2.198612    0.590561
     35          1           0        2.268771   -0.136081   -2.109370
     36          1           0        3.257834    1.288126   -1.761682
     37          1           0        1.500680    1.456996   -1.981643
     38          1           0       -1.184258   -1.387167   -1.167510
     39          1           0       -0.102655   -2.790492   -1.326670
     40          1           0        0.329179   -1.234374   -2.071288
     41          1           0        0.331959   -1.674777    2.244184
     42          1           0       -0.263510   -3.003046    1.216842
     43          1           0       -1.197884   -1.497352    1.351207
 ---------------------------------------------------------------------
                    Distance matrix (angstroms):
                    1          2          3          4          5
     1  C    0.000000
     2  C    1.522118   0.000000
     3  C    2.526344   1.528592   0.000000
     4  O    2.874922   2.463737   1.234043   0.000000
     5  O    3.705271   2.388236   1.367101   2.288095   0.000000
     6  C    4.949510   3.771624   2.436374   2.749089   1.473531
     7  C    6.105367   4.756817   3.686896   4.225659   2.400973
     8  O    2.461013   1.469366   2.379518   3.237717   2.942713
     9  N    3.414885   2.416351   3.498843   4.540048   3.658690
    10  C    4.700699   3.418892   4.028385   5.120467   3.681680
    11  C    5.808498   4.725530   5.521221   6.584913   5.237627
    12  C    5.383398   4.650148   5.790894   6.816814   5.822337
    13  C    4.055662   3.524291   4.743482   5.633980   5.088992
    14  C    3.699708   3.716393   5.165329   5.959499   5.762949
    15  C    4.621404   4.210878   5.178454   5.839031   5.634043
    16  C    5.143214   3.816642   3.918544   4.797849   3.485149
    17  C    5.078678   3.677519   4.105863   5.305486   3.385848
    18  C    6.534847   5.966208   7.126613   8.081026   7.219986
    19  N    7.536669   7.063607   8.229043   9.137521   8.357095
    20  H    1.094673   2.164702   2.761503   2.912987   3.909107
    21  H    1.092569   2.158653   2.790741   2.762531   4.103875
    22  H    1.092308   2.151941   3.468505   3.949237   4.506880
    23  H    2.181975   1.092493   2.151919   3.248324   2.499996
    24  H    5.145503   4.056365   2.669016   2.675616   2.093497
    25  H    5.103778   4.149727   2.732674   2.742960   2.094224
    26  H    6.235980   4.786293   3.927610   4.608354   2.649247
    27  H    7.034045   5.745232   4.548980   4.877932   3.363287
    28  H    6.201948   4.865524   3.971826   4.649395   2.649717
    29  H    6.392305   5.335837   6.002453   6.960453   5.741730
    30  H    6.590063   5.440097   6.184429   7.312565   5.715710
    31  H    5.413462   4.725247   5.958222   7.054013   5.948362
    32  H    3.636697   3.631437   5.142169   6.031247   5.654143
    33  H    3.024535   3.400289   4.807383   5.415442   5.636420
    34  H    4.687293   4.804145   6.241348   6.998450   6.835621
    35  H    5.377239   4.726160   5.472228   6.149019   5.720630
    36  H    5.290856   5.102840   6.159400   6.764955   6.689251
    37  H    4.006961   3.755989   4.598603   5.078001   5.249759
    38  H    4.734028   3.345950   3.076149   3.892566   2.543680
    39  H    6.200504   4.822695   4.803077   5.669999   4.139088
    40  H    5.223224   4.104628   4.279298   4.984601   4.139705
    41  H    5.200344   3.967090   4.662858   5.894723   4.080925
    42  H    6.120323   4.674890   4.893082   6.043558   3.966162
    43  H    4.580298   3.113762   3.270636   4.464761   2.407087
                    6          7          8          9         10
     6  C    0.000000
     7  C    1.520807   0.000000
     8  O    4.224884   5.031846   0.000000
     9  N    4.992125   5.437947   1.447492   0.000000
    10  C    4.765658   4.814791   2.465091   1.514685   0.000000
    11  C    6.294168   6.222157   3.633604   2.394334   1.556782
    12  C    7.076307   7.241240   3.621344   2.294147   2.464591
    13  C    6.395472   6.874672   2.413622   1.496365   2.481646
    14  C    7.169730   7.809659   3.070655   2.482946   3.795307
    15  C    6.763327   7.340235   2.851310   2.554381   3.217061
    16  C    4.196056   4.254998   2.749856   2.555720   1.540014
    17  C    4.406947   4.143138   3.307381   2.469835   1.539047
    18  C    8.436738   8.590438   4.845354   3.655274   3.775663
    19  N    9.549634   9.696466   5.906156   4.791062   4.890588
    20  H    5.031352   6.234983   3.410063   4.320372   5.519179
    21  H    5.180460   6.457569   2.676705   3.866973   5.118586
    22  H    5.852108   6.885111   2.756129   3.320047   4.763614
    23  H    3.958498   4.678726   2.079753   2.372411   3.249187
    24  H    1.094195   2.186403   4.262223   5.186433   4.958501
    25  H    1.093905   2.187057   4.888796   5.745105   5.688367
    26  H    2.163287   1.093745   4.748168   4.977226   4.115141
    27  H    2.153805   1.094660   6.012497   6.480312   5.804827
    28  H    2.164264   1.093423   5.317404   5.555598   4.968394
    29  H    6.659561   6.585990   4.068256   3.070686   2.196339
    30  H    6.708345   6.408437   4.516641   3.219297   2.208273
    31  H    7.270779   7.386044   3.993830   2.591051   2.872250
    32  H    7.114021   7.688205   3.348330   2.628029   3.915346
    33  H    7.006928   7.841333   2.897460   2.854348   4.301974
    34  H    8.228583   8.832679   4.086649   3.425141   4.571715
    35  H    6.700852   7.121078   3.269856   2.907842   3.032632
    36  H    7.839657   8.433025   3.834848   3.481113   4.185011
    37  H    6.322012   7.094370   2.464733   2.757272   3.600671
    38  H    3.133502   3.350048   2.588734   2.864869   2.176606
    39  H    4.604887   4.316390   3.832751   3.482717   2.161367
    40  H    4.827973   5.089912   2.804936   2.800051   2.196512
    41  H    5.218152   4.986321   3.754412   2.689051   2.177243
    42  H    4.697012   4.086849   4.241446   3.434839   2.179249
    43  H    3.443117   3.284974   3.112118   2.729897   2.173457
                   11         12         13         14         15
    11  C    0.000000
    12  C    1.550633   0.000000
    13  C    2.445844   1.555749   0.000000
    14  C    3.812295   2.560395   1.532050   0.000000
    15  C    3.107682   2.577405   1.543465   2.517565   0.000000
    16  C    2.560297   3.666710   3.424248   4.826348   3.517705
    17  C    2.556273   3.442586   3.677434   4.697672   4.678509
    18  C    2.526855   1.466045   2.528988   3.216839   2.952950
    19  N    3.561084   2.641413   3.561331   4.060607   3.671603
    20  H    6.701791   6.312877   5.067712   4.627268   5.710580
    21  H    6.195433   5.791479   4.327494   4.042711   4.523421
    22  H    5.634201   4.936876   3.644252   2.926994   4.365759
    23  H    4.513306   4.442299   3.607308   3.757334   4.625542
    24  H    6.440623   7.247815   6.469107   7.320040   6.582744
    25  H    7.236135   7.909009   7.150506   7.759216   7.570922
    26  H    5.416507   6.572840   6.342574   7.434897   6.743735
    27  H    7.168018   8.255174   7.892216   8.858733   8.261276
    28  H    6.339537   7.293477   7.034998   7.866619   7.710627
    29  H    1.093570   2.183828   2.898685   4.363362   3.001054
    30  H    1.092213   2.199405   3.389016   4.600987   4.175005
    31  H    2.177174   1.096086   2.160438   2.648110   3.491118
    32  H    4.030927   2.823780   2.171710   1.094726   3.472696
    33  H    4.586799   3.508212   2.167677   1.094028   2.692953
    34  H    4.250629   2.800381   2.172087   1.095691   2.818469
    35  H    2.768968   2.743710   2.208925   3.482481   1.093887
    36  H    3.791220   2.961761   2.175000   2.666798   1.094570
    37  H    3.898638   3.495621   2.164316   2.834413   1.092726
    38  H    3.510089   4.482483   3.997232   5.227033   4.132759
    39  H    2.781105   4.170365   4.263687   5.724648   4.335068
    40  H    2.835360   3.709029   3.263144   4.684469   2.879794
    41  H    2.756683   3.266477   3.703392   4.468291   4.961342
    42  H    2.851155   4.046321   4.518074   5.657679   5.375338
    43  H    3.504449   4.262194   4.155531   5.028958   5.105300
                   16         17         18         19         20
    16  C    0.000000
    17  C    2.519407   0.000000
    18  C    4.742766   4.812998   0.000000
    19  N    5.731322   5.944926   1.175369   0.000000
    20  H    5.963078   5.657534   7.508118   8.527074   0.000000
    21  H    5.305976   5.720250   6.825410   7.754735   1.771183
    22  H    5.459715   5.203596   5.984524   6.934273   1.777229
    23  H    3.982403   3.116364   5.841521   6.982894   2.566531
    24  H    4.095360   4.908933   8.521494   9.581873   5.342750
    25  H    5.234878   5.240672   9.298190  10.426748   4.953137
    26  H    3.429929   3.548696   7.855321   8.924269   6.543786
    27  H    5.091666   5.166124   9.571703  10.655218   7.111443
    28  H    4.731160   3.991893   8.689830   9.823976   6.230310
    29  H    2.553912   3.380857   2.651218   3.455972   7.348316
    30  H    3.223389   2.573696   2.980776   3.903685   7.402370
    31  H    4.303426   3.387891   2.084973   3.158587   6.225823
    32  H    5.151210   4.466920   3.667639   4.576699   4.392302
    33  H    5.100038   5.234610   4.160140   4.940796   3.976309
    34  H    5.594926   5.535712   2.930749   3.505501   5.594781
    35  H    3.012195   4.568532   3.023795   3.678900   6.450845
    36  H    4.559791   5.615987   2.827659   3.235472   6.373558
    37  H    3.643606   5.003066   4.024069   4.740430   5.095820
    38  H    1.092311   2.721222   5.667541   6.697946   5.432840
    39  H    1.096435   2.779429   5.115392   6.025249   6.979581
    40  H    1.093163   3.486172   4.558350   5.431794   6.145877
    41  H    3.477287   1.095380   4.619676   5.745130   5.724403
    42  H    2.748536   1.097028   5.268561   6.324073   6.679473
    43  H    2.770769   1.093961   5.690032   6.846493   5.014951
                   21         22         23         24         25
    21  H    0.000000
    22  H    1.783874   0.000000
    23  H    3.079258   2.482691   0.000000
    24  H    5.150791   6.089446   4.486698   0.000000
    25  H    5.347643   6.069096   4.320366   1.774696   0.000000
    26  H    6.563259   6.922496   4.711355   2.526425   3.088911
    27  H    7.309354   7.869727   5.730087   2.533954   2.533605
    28  H    6.719687   6.904539   4.552285   3.089128   2.530051
    29  H    6.617117   6.274346   5.301126   6.639903   7.663013
    30  H    7.082685   6.399406   5.048119   6.966305   7.644039
    31  H    5.999104   4.868242   4.287471   7.594521   8.023953
    32  H    4.246398   2.778543   3.382292   7.424201   7.628374
    33  H    3.181064   2.251007   3.699636   7.079113   7.509366
    34  H    4.940081   3.840216   4.841767   8.342622   8.841797
    35  H    5.266801   5.258150   5.116517   6.446187   7.608168
    36  H    5.141221   4.874090   5.498434   7.646117   8.623202
    37  H    3.703230   3.910555   4.402253   6.047787   7.056033
    38  H    4.878348   5.250691   3.606187   3.009281   4.174562
    39  H    6.388435   6.513725   4.877083   4.511195   5.686883
    40  H    5.185496   5.502831   4.488594   4.520940   5.837247
    41  H    5.976064   5.134230   3.188202   5.817767   5.933920
    42  H    6.716246   6.289382   4.152273   5.176885   5.587823
    43  H    5.246964   4.892789   2.542753   4.073811   4.201636
                   26         27         28         29         30
    26  H    0.000000
    27  H    1.777202   0.000000
    28  H    1.774985   1.776713   0.000000
    29  H    5.690545   7.446749   6.854847   0.000000
    30  H    5.573069   7.329013   6.397234   1.766192   0.000000
    31  H    6.802395   8.437405   7.276397   3.059958   2.417796
    32  H    7.391114   8.767774   7.594830   4.795750   4.629588
    33  H    7.566088   8.857700   7.969581   5.046825   5.464966
    34  H    8.400849   9.877687   8.895641   4.682742   4.983801
    35  H    6.400875   7.978221   7.569016   2.313162   3.817266
    36  H    7.830544   9.355711   8.786468   3.613549   4.782407
    37  H    6.608607   7.976925   7.542099   3.822258   4.985855
    38  H    2.663259   4.188027   3.931603   3.631104   4.121100
    39  H    3.320843   5.030995   4.795927   2.596112   3.146465
    40  H    4.306664   5.859624   5.672165   2.504983   3.699559
    41  H    4.506939   6.024187   4.652609   3.769238   2.578328
    42  H    3.330532   4.991006   3.935357   3.492365   2.556929
    43  H    2.911470   4.356648   3.084727   4.258381   3.652951
                   31         32         33         34         35
    31  H    0.000000
    32  H    2.474542   0.000000
    33  H    3.688678   1.780147   0.000000
    34  H    2.909018   1.784317   1.770033   0.000000
    35  H    3.796121   4.341059   3.754213   3.759758   0.000000
    36  H    3.831998   3.719721   2.855260   2.529618   1.768473
    37  H    4.302170   3.775956   2.578323   3.311521   1.773181
    38  H    4.999478   5.472318   5.328640   6.117614   3.791533
    39  H    4.789106   6.013025   6.099396   6.417824   3.644472
    40  H    4.546391   5.229508   4.858486   5.348880   2.229286
    41  H    2.869346   4.024725   5.132923   5.240224   5.007221
    42  H    4.048537   5.468446   6.242231   6.421823   5.069085
    43  H    4.193443   4.751101   5.372124   5.986801   5.083930
                   36         37         38         39         40
    36  H    0.000000
    37  H    1.778901   0.000000
    38  H    5.219427   3.995118   0.000000
    39  H    5.302570   4.587028   1.778909   0.000000
    40  H    3.877613   2.936652   1.769365   1.778325   0.000000
    41  H    5.778105   5.388091   3.744501   3.766259   4.337887
    42  H    6.299653   5.764950   3.023901   2.557441   3.780381
    43  H    6.107568   5.207524   2.521163   3.169032   3.756934
                   41         42         43
    41  H    0.000000
    42  H    1.781660   0.000000
    43  H    1.780255   1.777139   0.000000
 Stoichiometry    C14H24N2O3
 Framework group  C1[X(C14H24N2O3)]
 Deg. of freedom   123
 Full point group                 C1      NOp   1
 Largest Abelian subgroup         C1      NOp   1
 Largest concise Abelian subgroup C1      NOp   1
                         Standard orientation:                         
 ---------------------------------------------------------------------
 Center     Atomic      Atomic             Coordinates (Angstroms)
 Number     Number       Type             X           Y           Z
 ---------------------------------------------------------------------
      1          6           0        1.165419    3.015936   -0.571269
      2          6           0        1.302636    1.500961   -0.517745
      3          6           0        2.655350    1.072948    0.051080
      4          8           0        3.409958    1.776019    0.728664
      5          8           0        2.932837   -0.226657   -0.269847
      6          6           0        4.145393   -0.838273    0.301929
      7          6           0        4.137982   -2.298148   -0.124176
      8          8           0        0.305324    0.921088    0.392284
      9          7           0       -0.704011    0.169046   -0.322495
     10          6           0       -0.577458   -1.325204   -0.109256
     11          6           0       -2.063324   -1.789661   -0.102111
     12          6           0       -2.874900   -0.541525   -0.535657
     13          6           0       -2.069337    0.651116    0.055131
     14          6           0       -2.381456    1.967611   -0.663617
     15          6           0       -2.287518    0.817654    1.573995
     16          6           0        0.138803   -1.701885    1.200983
     17          6           0        0.186676   -1.912611   -1.309139
     18          6           0       -4.277114   -0.571431   -0.108819
     19          7           0       -5.400893   -0.594489    0.234809
     20          1           0        1.971315    3.454231   -1.168545
     21          1           0        1.221177    3.435858    0.435838
     22          1           0        0.208208    3.283153   -1.024566
     23          1           0        1.162742    1.040876   -1.498710
     24          1           0        4.110355   -0.720392    1.389191
     25          1           0        5.016940   -0.296060   -0.076275
     26          1           0        3.245301   -2.804820    0.253557
     27          1           0        5.022379   -2.805256    0.274527
     28          1           0        4.149661   -2.382676   -1.214264
     29          1           0       -2.364985   -2.105793    0.900364
     30          1           0       -2.228109   -2.629324   -0.780890
     31          1           0       -2.853986   -0.452977   -1.627960
     32          1           0       -2.100546    1.902288   -1.719670
     33          1           0       -1.827848    2.790023   -0.200958
     34          1           0       -3.450025    2.198612   -0.590561
     35          1           0       -2.268771   -0.136081    2.109370
     36          1           0       -3.257834    1.288126    1.761682
     37          1           0       -1.500680    1.456996    1.981643
     38          1           0        1.184258   -1.387167    1.167510
     39          1           0        0.102655   -2.790492    1.326670
     40          1           0       -0.329179   -1.234374    2.071288
     41          1           0       -0.331959   -1.674777   -2.244184
     42          1           0        0.263510   -3.003046   -1.216842
     43          1           0        1.197884   -1.497352   -1.351207
 ---------------------------------------------------------------------
 Rotational constants (GHZ):           0.6699555           0.2365430           0.1939980
 Leave Link  202 at Wed Jan  8 05:27:56 2025, MaxMem=  4026531840 cpu:               0.1 elap:               0.0
 (Enter /usr/local/intel/g16/l301.exe)
 Standard basis: def2TZVP (5D, 7F)
 Ernie: Thresh=  0.10000D-02 Tol=  0.10000D-05 Strict=F.
 There are   828 symmetry adapted cartesian basis functions of A   symmetry.
 There are   733 symmetry adapted basis functions of A   symmetry.
   733 basis functions,  1161 primitive gaussians,   828 cartesian basis functions
    73 alpha electrons       73 beta electrons
       nuclear repulsion energy      1600.3050244602 Hartrees.
 IExCor= 4336 DFT=T Ex+Corr=M062X ExCW=0 ScaHFX=  0.540000
 ScaDFX=  1.000000  1.000000  1.000000  1.000000 ScalE2=  1.000000  1.000000
 IRadAn=      5 IRanWt=     -1 IRanGd=            0 ICorTp=0 IEmpDi=  4
 NAtoms=   43 NActive=   43 NUniq=   43 SFac= 1.00D+00 NAtFMM=   60 NAOKFM=F Big=F
 Integral buffers will be    131072 words long.
 Raffenetti 2 integral format.
 Two-electron integral symmetry is turned on.
 Leave Link  301 at Wed Jan  8 05:27:56 2025, MaxMem=  4026531840 cpu:               1.9 elap:               0.1
 (Enter /usr/local/intel/g16/l302.exe)
 NPDir=0 NMtPBC=     1 NCelOv=     1 NCel=       1 NClECP=     1 NCelD=      1
         NCelK=      1 NCelE2=     1 NClLst=     1 CellRange=     0.0.
 One-electron integrals computed using PRISM.
 One-electron integral symmetry used in STVInt
   1 Symmetry operations used in ECPInt.
 ECPInt:  NShTT=   46665 NPrTT=  138040 LenC2=   42187 LenP2D=   90493.
 LDataN:  DoStor=T MaxTD1= 6 Len=  172
 NBasis=   733 RedAO= T EigKep=  1.99D-05  NBF=   733
 NBsUse=   733 1.00D-06 EigRej= -1.00D+00 NBFU=   733
 Precomputing XC quadrature grid using
 IXCGrd= 4 IRadAn=           5 IRanWt=          -1 IRanGd=           0 AccXCQ= 0.00D+00.
 Generated NRdTot=       0 NPtTot=           0 NUsed=           0 NTot=          32
 NSgBfM=   817   816   817   817   817 MxSgAt=    43 MxSgA2=    43.
 Leave Link  302 at Wed Jan  8 05:27:59 2025, MaxMem=  4026531840 cpu:              50.2 elap:               2.6
 (Enter /usr/local/intel/g16/l303.exe)
 DipDrv:  MaxL=1.
 Leave Link  303 at Wed Jan  8 05:27:59 2025, MaxMem=  4026531840 cpu:               6.1 elap:               0.4
 (Enter /usr/local/intel/g16/l401.exe)
 ExpMin= 9.52D-02 ExpMax= 2.70D+04 ExpMxC= 9.22D+02 IAcc=3 IRadAn=         5 AccDes= 0.00D+00
 Harris functional with IExCor= 1009 and IRadAn=       5 diagonalized for initial guess.
 HarFok:  IExCor= 1009 AccDes= 0.00D+00 IRadAn=         5 IDoV= 1 UseB2=F ITyADJ=14
 ICtDFT=  3500011 ScaDFX=  1.000000  1.000000  1.000000  1.000000
 FoFCou: FMM=F IPFlag=           0 FMFlag=      100000 FMFlg1=           0
         NFxFlg=           0 DoJE=T BraDBF=F KetDBF=T FulRan=T
         wScrn=  0.000000 ICntrl=       500 IOpCl=  0 I1Cent=   200000004 NGrid=           0
         NMat0=    1 NMatS0=      1 NMatT0=    0 NMatD0=    1 NMtDS0=    0 NMtDT0=    0
 Petite list used in FoFCou.
 Harris En= -882.660298658189    
 JPrj=0 DoOrth=F DoCkMO=F.
 Leave Link  401 at Wed Jan  8 05:28:06 2025, MaxMem=  4026531840 cpu:             128.9 elap:               6.5
 (Enter /usr/local/intel/g16/l502.exe)
 Integral symmetry usage will be decided dynamically.
 Closed shell SCF:
 Using DIIS extrapolation, IDIIS=  1040.
 NGot=  4026531840 LenX=  4025135618 LenY=  4024449206
 Requested convergence on RMS density matrix=1.00D-08 within 128 cycles.
 Requested convergence on MAX density matrix=1.00D-06.
 Requested convergence on             energy=1.00D-06.
 No special actions if energy rises.
 Fock matrices will be formed incrementally for  20 cycles.
 Integral accuracy reduced to 1.0D-05 until final iterations.

 Cycle   1  Pass 0  IDiag  1:
 FoFJK:  IHMeth= 1 ICntrl=       0 DoSepK=F KAlg= 0 I1Cent=           0 FoldK=F
 IRaf= 840000000 NMat=       1 IRICut=       1 DoRegI=T DoRafI=F ISym2E= 0 IDoP0=0 IntGTp=1.
 FoFCou: FMM=F IPFlag=           0 FMFlag=      100000 FMFlg1=           0
         NFxFlg=           0 DoJE=F BraDBF=F KetDBF=F FulRan=T
         wScrn=  0.000000 ICntrl=         0 IOpCl=  0 I1Cent=           0 NGrid=           0
         NMat0=    1 NMatS0=      1 NMatT0=    0 NMatD0=    1 NMtDS0=    0 NMtDT0=    0
 Symmetry not used in FoFCou.
 E= -882.429165803792    
 DIIS: error= 1.98D-02 at cycle   1 NSaved=   1.
 NSaved= 1 IEnMin= 1 EnMin= -882.429165803792     IErMin= 1 ErrMin= 1.98D-02
 ErrMax= 1.98D-02  0.00D+00 EMaxC= 1.00D-01 BMatC= 7.42D-01 BMatP= 7.42D-01
 IDIUse=3 WtCom= 8.02D-01 WtEn= 1.98D-01
 Coeff-Com:  0.100D+01
 Coeff-En:   0.100D+01
 Coeff:      0.100D+01
 Gap=     0.323 Goal=   None    Shift=    0.000
 GapD=    0.323 DampG=1.000 DampE=0.500 DampFc=0.5000 IDamp=-1.
 Damping current iteration by 5.00D-01
 RMSDP=2.31D-03 MaxDP=3.39D-01              OVMax= 1.91D-01

 Cycle   2  Pass 0  IDiag  1:
 RMSU=  1.15D-03    CP:  9.77D-01
 E= -882.719801254598     Delta-E=       -0.290635450807 Rises=F Damp=T
 DIIS: error= 4.19D-03 at cycle   2 NSaved=   2.
 NSaved= 2 IEnMin= 2 EnMin= -882.719801254598     IErMin= 2 ErrMin= 4.19D-03
 ErrMax= 4.19D-03  0.00D+00 EMaxC= 1.00D-01 BMatC= 6.39D-02 BMatP= 7.42D-01
 IDIUse=3 WtCom= 9.58D-01 WtEn= 4.19D-02
 Coeff-Com: -0.550D-01 0.106D+01
 Coeff-En:   0.000D+00 0.100D+01
 Coeff:     -0.527D-01 0.105D+01
 Gap=     0.412 Goal=   None    Shift=    0.000
 RMSDP=7.35D-04 MaxDP=7.78D-02 DE=-2.91D-01 OVMax= 1.14D-01

 Cycle   3  Pass 0  IDiag  1:
 RMSU=  7.27D-04    CP:  9.65D-01  1.07D+00
 E= -882.983190591695     Delta-E=       -0.263389337096 Rises=F Damp=F
 DIIS: error= 4.71D-03 at cycle   3 NSaved=   3.
 NSaved= 3 IEnMin= 3 EnMin= -882.983190591695     IErMin= 2 ErrMin= 4.19D-03
 ErrMax= 4.71D-03  0.00D+00 EMaxC= 1.00D-01 BMatC= 4.85D-02 BMatP= 6.39D-02
 IDIUse=3 WtCom= 9.53D-01 WtEn= 4.71D-02
 Coeff-Com: -0.935D-01 0.524D+00 0.570D+00
 Coeff-En:   0.000D+00 0.000D+00 0.100D+01
 Coeff:     -0.891D-01 0.499D+00 0.590D+00
 Gap=     0.322 Goal=   None    Shift=    0.000
 RMSDP=3.03D-04 MaxDP=3.23D-02 DE=-2.63D-01 OVMax= 6.38D-02

 Cycle   4  Pass 0  IDiag  1:
 RMSU=  2.62D-04    CP:  9.66D-01  1.17D+00  8.63D-01
 E= -883.011737685840     Delta-E=       -0.028547094145 Rises=F Damp=F
 DIIS: error= 2.13D-03 at cycle   4 NSaved=   4.
 NSaved= 4 IEnMin= 4 EnMin= -883.011737685840     IErMin= 4 ErrMin= 2.13D-03
 ErrMax= 2.13D-03  0.00D+00 EMaxC= 1.00D-01 BMatC= 9.99D-03 BMatP= 4.85D-02
 IDIUse=3 WtCom= 9.79D-01 WtEn= 2.13D-02
 Coeff-Com: -0.339D-01 0.971D-01 0.338D+00 0.599D+00
 Coeff-En:   0.000D+00 0.000D+00 0.190D+00 0.810D+00
 Coeff:     -0.332D-01 0.950D-01 0.334D+00 0.604D+00
 Gap=     0.317 Goal=   None    Shift=    0.000
 RMSDP=1.29D-04 MaxDP=2.10D-02 DE=-2.85D-02 OVMax= 1.72D-02

 Cycle   5  Pass 0  IDiag  1:
 RMSU=  7.62D-05    CP:  9.64D-01  1.13D+00  9.28D-01  6.96D-01
 E= -883.019219866963     Delta-E=       -0.007482181123 Rises=F Damp=F
 DIIS: error= 6.35D-04 at cycle   5 NSaved=   5.
 NSaved= 5 IEnMin= 5 EnMin= -883.019219866963     IErMin= 5 ErrMin= 6.35D-04
 ErrMax= 6.35D-04  0.00D+00 EMaxC= 1.00D-01 BMatC= 4.52D-04 BMatP= 9.99D-03
 IDIUse=3 WtCom= 9.94D-01 WtEn= 6.35D-03
 Coeff-Com: -0.127D-01 0.274D-01 0.148D+00 0.310D+00 0.528D+00
 Coeff-En:   0.000D+00 0.000D+00 0.000D+00 0.000D+00 0.100D+01
 Coeff:     -0.126D-01 0.272D-01 0.147D+00 0.308D+00 0.531D+00
 Gap=     0.318 Goal=   None    Shift=    0.000
 RMSDP=3.19D-05 MaxDP=4.31D-03 DE=-7.48D-03 OVMax= 5.01D-03

 Cycle   6  Pass 0  IDiag  1:
 RMSU=  2.20D-05    CP:  9.65D-01  1.14D+00  9.27D-01  7.07D-01  7.32D-01
 E= -883.019542938133     Delta-E=       -0.000323071170 Rises=F Damp=F
 DIIS: error= 2.28D-04 at cycle   6 NSaved=   6.
 NSaved= 6 IEnMin= 6 EnMin= -883.019542938133     IErMin= 6 ErrMin= 2.28D-04
 ErrMax= 2.28D-04  0.00D+00 EMaxC= 1.00D-01 BMatC= 5.33D-05 BMatP= 4.52D-04
 IDIUse=3 WtCom= 9.98D-01 WtEn= 2.28D-03
 Coeff-Com: -0.184D-02 0.104D-02 0.338D-01 0.837D-01 0.285D+00 0.598D+00
 Coeff-En:   0.000D+00 0.000D+00 0.000D+00 0.000D+00 0.486D-01 0.951D+00
 Coeff:     -0.184D-02 0.104D-02 0.338D-01 0.835D-01 0.285D+00 0.599D+00
 Gap=     0.319 Goal=   None    Shift=    0.000
 RMSDP=1.32D-05 MaxDP=2.51D-03 DE=-3.23D-04 OVMax= 1.69D-03

 Cycle   7  Pass 0  IDiag  1:
 RMSU=  9.33D-06    CP:  9.64D-01  1.13D+00  9.32D-01  7.08D-01  8.09D-01
                    CP:  8.71D-01
 E= -883.019585237419     Delta-E=       -0.000042299286 Rises=F Damp=F
 DIIS: error= 7.19D-05 at cycle   7 NSaved=   7.
 NSaved= 7 IEnMin= 7 EnMin= -883.019585237419     IErMin= 7 ErrMin= 7.19D-05
 ErrMax= 7.19D-05  0.00D+00 EMaxC= 1.00D-01 BMatC= 7.00D-06 BMatP= 5.33D-05
 IDIUse=1 WtCom= 1.00D+00 WtEn= 0.00D+00
 Coeff-Com:  0.800D-03-0.314D-02-0.154D-02 0.170D-02 0.823D-01 0.322D+00
 Coeff-Com:  0.598D+00
 Coeff:      0.800D-03-0.314D-02-0.154D-02 0.170D-02 0.823D-01 0.322D+00
 Coeff:      0.598D+00
 Gap=     0.319 Goal=   None    Shift=    0.000
 RMSDP=5.36D-06 MaxDP=3.51D-04 DE=-4.23D-05 OVMax= 4.62D-04

 Initial convergence to 1.0D-05 achieved.  Increase integral accuracy.
 Cycle   8  Pass 1  IDiag  1:
 E= -883.019614492872     Delta-E=       -0.000029255453 Rises=F Damp=F
 DIIS: error= 2.63D-04 at cycle   1 NSaved=   1.
 NSaved= 1 IEnMin= 1 EnMin= -883.019614492872     IErMin= 1 ErrMin= 2.63D-04
 ErrMax= 2.63D-04  0.00D+00 EMaxC= 1.00D-01 BMatC= 3.17D-05 BMatP= 3.17D-05
 IDIUse=3 WtCom= 9.97D-01 WtEn= 2.63D-03
 Coeff-Com:  0.100D+01
 Coeff-En:   0.100D+01
 Coeff:      0.100D+01
 Gap=     0.319 Goal=   None    Shift=    0.000
 RMSDP=5.36D-06 MaxDP=3.51D-04 DE=-2.93D-05 OVMax= 6.57D-04

 Cycle   9  Pass 1  IDiag  1:
 RMSU=  3.10D-04    CP:  9.97D-01
 E= -883.019633046006     Delta-E=       -0.000018553134 Rises=F Damp=F
 DIIS: error= 2.62D-05 at cycle   2 NSaved=   2.
 NSaved= 2 IEnMin= 2 EnMin= -883.019633046006     IErMin= 2 ErrMin= 2.62D-05
 ErrMax= 2.62D-05  0.00D+00 EMaxC= 1.00D-01 BMatC= 1.18D-06 BMatP= 3.17D-05
 IDIUse=1 WtCom= 1.00D+00 WtEn= 0.00D+00
 Coeff-Com:  0.433D-01 0.957D+00
 Coeff:      0.433D-01 0.957D+00
 Gap=     0.319 Goal=   None    Shift=    0.000
 RMSDP=9.45D-06 MaxDP=7.03D-04 DE=-1.86D-05 OVMax= 4.57D-04

 Cycle  10  Pass 1  IDiag  1:
 RMSU=  4.30D-06    CP:  9.97D-01  1.03D+00
 E= -883.019631934724     Delta-E=        0.000001111282 Rises=F Damp=F
 DIIS: error= 4.76D-05 at cycle   3 NSaved=   3.
 NSaved= 3 IEnMin= 2 EnMin= -883.019633046006     IErMin= 2 ErrMin= 2.62D-05
 ErrMax= 4.76D-05  0.00D+00 EMaxC= 1.00D-01 BMatC= 2.62D-06 BMatP= 1.18D-06
 IDIUse=1 WtCom= 1.00D+00 WtEn= 0.00D+00
 Coeff-Com: -0.842D-02 0.603D+00 0.405D+00
 Coeff:     -0.842D-02 0.603D+00 0.405D+00
 Gap=     0.319 Goal=   None    Shift=    0.000
 RMSDP=2.18D-06 MaxDP=3.61D-04 DE= 1.11D-06 OVMax= 3.17D-04

 Cycle  11  Pass 1  IDiag  1:
 RMSU=  1.65D-06    CP:  9.97D-01  1.03D+00  7.33D-01
 E= -883.019633928167     Delta-E=       -0.000001993443 Rises=F Damp=F
 DIIS: error= 7.18D-06 at cycle   4 NSaved=   4.
 NSaved= 4 IEnMin= 4 EnMin= -883.019633928167     IErMin= 4 ErrMin= 7.18D-06
 ErrMax= 7.18D-06  0.00D+00 EMaxC= 1.00D-01 BMatC= 4.80D-08 BMatP= 1.18D-06
 IDIUse=1 WtCom= 1.00D+00 WtEn= 0.00D+00
 Coeff-Com: -0.592D-02 0.329D+00 0.237D+00 0.440D+00
 Coeff:     -0.592D-02 0.329D+00 0.237D+00 0.440D+00
 Gap=     0.319 Goal=   None    Shift=    0.000
 RMSDP=2.58D-07 MaxDP=2.75D-05 DE=-1.99D-06 OVMax= 4.09D-05

 Cycle  12  Pass 1  IDiag  1:
 RMSU=  2.21D-07    CP:  9.97D-01  1.03D+00  7.55D-01  9.74D-01
 E= -883.019633966632     Delta-E=       -0.000000038464 Rises=F Damp=F
 DIIS: error= 7.32D-07 at cycle   5 NSaved=   5.
 NSaved= 5 IEnMin= 5 EnMin= -883.019633966632     IErMin= 5 ErrMin= 7.32D-07
 ErrMax= 7.32D-07  0.00D+00 EMaxC= 1.00D-01 BMatC= 1.26D-09 BMatP= 4.80D-08
 IDIUse=1 WtCom= 1.00D+00 WtEn= 0.00D+00
 Coeff-Com: -0.400D-03 0.451D-02 0.842D-02 0.108D+00 0.879D+00
 Coeff:     -0.400D-03 0.451D-02 0.842D-02 0.108D+00 0.879D+00
 Gap=     0.319 Goal=   None    Shift=    0.000
 RMSDP=1.73D-07 MaxDP=2.01D-05 DE=-3.85D-08 OVMax= 1.21D-05

 Cycle  13  Pass 1  IDiag  1:
 RMSU=  9.62D-08    CP:  9.97D-01  1.03D+00  7.58D-01  1.04D+00  1.04D+00
 E= -883.019633968075     Delta-E=       -0.000000001444 Rises=F Damp=F
 DIIS: error= 4.18D-07 at cycle   6 NSaved=   6.
 NSaved= 6 IEnMin= 6 EnMin= -883.019633968075     IErMin= 6 ErrMin= 4.18D-07
 ErrMax= 4.18D-07  0.00D+00 EMaxC= 1.00D-01 BMatC= 3.28D-10 BMatP= 1.26D-09
 IDIUse=1 WtCom= 1.00D+00 WtEn= 0.00D+00
 Coeff-Com:  0.867D-03-0.556D-01-0.373D-01-0.283D-01 0.397D+00 0.723D+00
 Coeff:      0.867D-03-0.556D-01-0.373D-01-0.283D-01 0.397D+00 0.723D+00
 Gap=     0.319 Goal=   None    Shift=    0.000
 RMSDP=4.39D-08 MaxDP=2.46D-06 DE=-1.44D-09 OVMax= 1.10D-05

 Cycle  14  Pass 1  IDiag  1:
 RMSU=  2.80D-08    CP:  9.97D-01  1.03D+00  7.60D-01  1.05D+00  1.07D+00
                    CP:  1.17D+00
 E= -883.019633968490     Delta-E=       -0.000000000415 Rises=F Damp=F
 DIIS: error= 1.73D-07 at cycle   7 NSaved=   7.
 NSaved= 7 IEnMin= 7 EnMin= -883.019633968490     IErMin= 7 ErrMin= 1.73D-07
 ErrMax= 1.73D-07  0.00D+00 EMaxC= 1.00D-01 BMatC= 4.85D-11 BMatP= 3.28D-10
 IDIUse=1 WtCom= 1.00D+00 WtEn= 0.00D+00
 Coeff-Com:  0.459D-03-0.275D-01-0.190D-01-0.258D-01 0.925D-01 0.338D+00
 Coeff-Com:  0.641D+00
 Coeff:      0.459D-03-0.275D-01-0.190D-01-0.258D-01 0.925D-01 0.338D+00
 Coeff:      0.641D+00
 Gap=     0.319 Goal=   None    Shift=    0.000
 RMSDP=1.58D-08 MaxDP=1.17D-06 DE=-4.15D-10 OVMax= 1.96D-06

 Cycle  15  Pass 1  IDiag  1:
 RMSU=  1.16D-08    CP:  9.97D-01  1.03D+00  7.60D-01  1.05D+00  1.09D+00
                    CP:  1.25D+00  1.09D+00
 E= -883.019633968513     Delta-E=       -0.000000000023 Rises=F Damp=F
 DIIS: error= 7.24D-08 at cycle   8 NSaved=   8.
 NSaved= 8 IEnMin= 8 EnMin= -883.019633968513     IErMin= 8 ErrMin= 7.24D-08
 ErrMax= 7.24D-08  0.00D+00 EMaxC= 1.00D-01 BMatC= 9.66D-12 BMatP= 4.85D-11
 IDIUse=1 WtCom= 1.00D+00 WtEn= 0.00D+00
 Coeff-Com:  0.123D-04 0.211D-03-0.118D-04-0.565D-02-0.478D-01 0.109D-01
 Coeff-Com:  0.349D+00 0.693D+00
 Coeff:      0.123D-04 0.211D-03-0.118D-04-0.565D-02-0.478D-01 0.109D-01
 Coeff:      0.349D+00 0.693D+00
 Gap=     0.319 Goal=   None    Shift=    0.000
 RMSDP=9.56D-09 MaxDP=6.50D-07 DE=-2.32D-11 OVMax= 1.56D-06

 SCF Done:  E(RM062X) =  -883.019633969     A.U. after   15 cycles
            NFock= 15  Conv=0.96D-08     -V/T= 2.0060
 KE= 8.777909562853D+02 PE=-5.256810082591D+03 EE= 1.895694467877D+03
 Leave Link  502 at Wed Jan  8 05:37:47 2025, MaxMem=  4026531840 cpu:           11622.1 elap:             581.4
 (Enter /usr/local/intel/g16/l601.exe)
 Copying SCF densities to generalized density rwf, IOpCl= 0 IROHF=0.

 **********************************************************************

            Population analysis using the SCF Density.

 **********************************************************************

 Orbital symmetries:
       Occupied  (A) (A) (A) (A) (A) (A) (A) (A) (A) (A) (A) (A)
                 (A) (A) (A) (A) (A) (A) (A) (A) (A) (A) (A) (A)
                 (A) (A) (A) (A) (A) (A) (A) (A) (A) (A) (A) (A)
                 (A) (A) (A) (A) (A) (A) (A) (A) (A) (A) (A) (A)
                 (A) (A) (A) (A) (A) (A) (A) (A) (A) (A) (A) (A)
                 (A) (A) (A) (A) (A) (A) (A) (A) (A) (A) (A) (A)
                 (A)
       Virtual   (A) (A) (A) (A) (A) (A) (A) (A) (A) (A) (A) (A)
                 (A) (A) (A) (A) (A) (A) (A) (A) (A) (A) (A) (A)
                 (A) (A) (A) (A) (A) (A) (A) (A) (A) (A) (A) (A)
                 (A) (A) (A) (A) (A) (A) (A) (A) (A) (A) (A) (A)
                 (A) (A) (A) (A) (A) (A) (A) (A) (A) (A) (A) (A)
                 (A) (A) (A) (A) (A) (A) (A) (A) (A) (A) (A) (A)
                 (A) (A) (A) (A) (A) (A) (A) (A) (A) (A) (A) (A)
                 (A) (A) (A) (A) (A) (A) (A) (A) (A) (A) (A) (A)
                 (A) (A) (A) (A) (A) (A) (A) (A) (A) (A) (A) (A)
                 (A) (A) (A) (A) (A) (A) (A) (A) (A) (A) (A) (A)
                 (A) (A) (A) (A) (A) (A) (A) (A) (A) (A) (A) (A)
                 (A) (A) (A) (A) (A) (A) (A) (A) (A) (A) (A) (A)
                 (A) (A) (A) (A) (A) (A) (A) (A) (A) (A) (A) (A)
                 (A) (A) (A) (A) (A) (A) (A) (A) (A) (A) (A) (A)
                 (A) (A) (A) (A) (A) (A) (A) (A) (A) (A) (A) (A)
                 (A) (A) (A) (A) (A) (A) (A) (A) (A) (A) (A) (A)
                 (A) (A) (A) (A) (A) (A) (A) (A) (A) (A) (A) (A)
                 (A) (A) (A) (A) (A) (A) (A) (A) (A) (A) (A) (A)
                 (A) (A) (A) (A) (A) (A) (A) (A) (A) (A) (A) (A)
                 (A) (A) (A) (A) (A) (A) (A) (A) (A) (A) (A) (A)
                 (A) (A) (A) (A) (A) (A) (A) (A) (A) (A) (A) (A)
                 (A) (A) (A) (A) (A) (A) (A) (A) (A) (A) (A) (A)
                 (A) (A) (A) (A) (A) (A) (A) (A) (A) (A) (A) (A)
                 (A) (A) (A) (A) (A) (A) (A) (A) (A) (A) (A) (A)
                 (A) (A) (A) (A) (A) (A) (A) (A) (A) (A) (A) (A)
                 (A) (A) (A) (A) (A) (A) (A) (A) (A) (A) (A) (A)
                 (A) (A) (A) (A) (A) (A) (A) (A) (A) (A) (A) (A)
                 (A) (A) (A) (A) (A) (A) (A) (A) (A) (A) (A) (A)
                 (A) (A) (A) (A) (A) (A) (A) (A) (A) (A) (A) (A)
                 (A) (A) (A) (A) (A) (A) (A) (A) (A) (A) (A) (A)
                 (A) (A) (A) (A) (A) (A) (A) (A) (A) (A) (A) (A)
                 (A) (A) (A) (A) (A) (A) (A) (A) (A) (A) (A) (A)
                 (A) (A) (A) (A) (A) (A) (A) (A) (A) (A) (A) (A)
                 (A) (A) (A) (A) (A) (A) (A) (A) (A) (A) (A) (A)
                 (A) (A) (A) (A) (A) (A) (A) (A) (A) (A) (A) (A)
                 (A) (A) (A) (A) (A) (A) (A) (A) (A) (A) (A) (A)
                 (A) (A) (A) (A) (A) (A) (A) (A) (A) (A) (A) (A)
                 (A) (A) (A) (A) (A) (A) (A) (A) (A) (A) (A) (A)
                 (A) (A) (A) (A) (A) (A) (A) (A) (A) (A) (A) (A)
                 (A) (A) (A) (A) (A) (A) (A) (A) (A) (A) (A) (A)
                 (A) (A) (A) (A) (A) (A) (A) (A) (A) (A) (A) (A)
                 (A) (A) (A) (A) (A) (A) (A) (A) (A) (A) (A) (A)
                 (A) (A) (A) (A) (A) (A) (A) (A) (A) (A) (A) (A)
                 (A) (A) (A) (A) (A) (A) (A) (A) (A) (A) (A) (A)
                 (A) (A) (A) (A) (A) (A) (A) (A) (A) (A) (A) (A)
                 (A) (A) (A) (A) (A) (A) (A) (A) (A) (A) (A) (A)
                 (A) (A) (A) (A) (A) (A) (A) (A) (A) (A) (A) (A)
                 (A) (A) (A) (A) (A) (A) (A) (A) (A) (A) (A) (A)
                 (A) (A) (A) (A) (A) (A) (A) (A) (A) (A) (A) (A)
                 (A) (A) (A) (A) (A) (A) (A) (A) (A) (A) (A) (A)
                 (A) (A) (A) (A) (A) (A) (A) (A) (A) (A) (A) (A)
                 (A) (A) (A) (A) (A) (A) (A) (A) (A) (A) (A) (A)
                 (A) (A) (A) (A) (A) (A) (A) (A) (A) (A) (A) (A)
                 (A) (A) (A) (A) (A) (A) (A) (A) (A) (A) (A) (A)
                 (A) (A) (A) (A) (A) (A) (A) (A) (A) (A) (A) (A)
 The electronic state is 1-A.
 Alpha  occ. eigenvalues --  -19.68169 -19.67410 -19.63023 -14.80323 -14.75800
 Alpha  occ. eigenvalues --  -10.68605 -10.61665 -10.61001 -10.60131 -10.59555
 Alpha  occ. eigenvalues --  -10.59374 -10.58358 -10.56181 -10.54708 -10.53790
 Alpha  occ. eigenvalues --  -10.53697 -10.53314 -10.53304 -10.53141  -1.22831
 Alpha  occ. eigenvalues --   -1.19184  -1.13771  -1.02620  -1.00259  -0.91475
 Alpha  occ. eigenvalues --   -0.90668  -0.88071  -0.85472  -0.82568  -0.79488
 Alpha  occ. eigenvalues --   -0.78406  -0.77002  -0.75812  -0.71443  -0.67299
 Alpha  occ. eigenvalues --   -0.65707  -0.64631  -0.60563  -0.59799  -0.58275
 Alpha  occ. eigenvalues --   -0.57141  -0.56591  -0.55308  -0.53977  -0.52748
 Alpha  occ. eigenvalues --   -0.51517  -0.50385  -0.50045  -0.49576  -0.49140
 Alpha  occ. eigenvalues --   -0.48554  -0.47551  -0.47144  -0.46764  -0.46250
 Alpha  occ. eigenvalues --   -0.45375  -0.45059  -0.44682  -0.43837  -0.43777
 Alpha  occ. eigenvalues --   -0.43631  -0.43226  -0.42758  -0.42526  -0.41889
 Alpha  occ. eigenvalues --   -0.40742  -0.39700  -0.38416  -0.38115  -0.37471
 Alpha  occ. eigenvalues --   -0.37356  -0.34790  -0.30303
 Alpha virt. eigenvalues --    0.01598   0.04255   0.05549   0.06008   0.06844
 Alpha virt. eigenvalues --    0.07351   0.07815   0.08328   0.09154   0.09613
 Alpha virt. eigenvalues --    0.10374   0.10494   0.11021   0.11976   0.12728
 Alpha virt. eigenvalues --    0.12760   0.13173   0.13364   0.13943   0.14226
 Alpha virt. eigenvalues --    0.14283   0.14707   0.15383   0.15530   0.15973
 Alpha virt. eigenvalues --    0.16693   0.17090   0.17237   0.17949   0.17993
 Alpha virt. eigenvalues --    0.18460   0.19063   0.19896   0.20089   0.20780
 Alpha virt. eigenvalues --    0.21406   0.21605   0.22052   0.22979   0.23534
 Alpha virt. eigenvalues --    0.23599   0.23996   0.24665   0.25055   0.25536
 Alpha virt. eigenvalues --    0.26321   0.26850   0.27866   0.28716   0.28922
 Alpha virt. eigenvalues --    0.29376   0.30526   0.30922   0.31581   0.31905
 Alpha virt. eigenvalues --    0.32681   0.33021   0.33986   0.34740   0.35535
 Alpha virt. eigenvalues --    0.36158   0.36686   0.36863   0.37593   0.38159
 Alpha virt. eigenvalues --    0.38581   0.38999   0.39609   0.40061   0.40267
 Alpha virt. eigenvalues --    0.40853   0.41748   0.42066   0.42408   0.42720
 Alpha virt. eigenvalues --    0.43065   0.43550   0.43887   0.44307   0.44729
 Alpha virt. eigenvalues --    0.45108   0.45406   0.45673   0.46335   0.46560
 Alpha virt. eigenvalues --    0.46725   0.47075   0.47395   0.47567   0.48278
 Alpha virt. eigenvalues --    0.48744   0.49014   0.49251   0.49506   0.50142
 Alpha virt. eigenvalues --    0.50559   0.50705   0.51625   0.51726   0.51916
 Alpha virt. eigenvalues --    0.52176   0.52857   0.53788   0.53933   0.54346
 Alpha virt. eigenvalues --    0.55099   0.55637   0.55912   0.56537   0.57553
 Alpha virt. eigenvalues --    0.58196   0.58428   0.59076   0.59657   0.59886
 Alpha virt. eigenvalues --    0.60772   0.60919   0.62342   0.62544   0.62996
 Alpha virt. eigenvalues --    0.64559   0.65663   0.66374   0.66484   0.67524
 Alpha virt. eigenvalues --    0.68133   0.69618   0.70460   0.70747   0.71925
 Alpha virt. eigenvalues --    0.72831   0.73439   0.73880   0.74251   0.76034
 Alpha virt. eigenvalues --    0.77724   0.78299   0.79236   0.80313   0.81110
 Alpha virt. eigenvalues --    0.81381   0.83087   0.83542   0.84645   0.84941
 Alpha virt. eigenvalues --    0.86682   0.87266   0.88349   0.89243   0.89812
 Alpha virt. eigenvalues --    0.89998   0.90883   0.91546   0.92714   0.92849
 Alpha virt. eigenvalues --    0.93240   0.94348   0.94886   0.96021   0.96726
 Alpha virt. eigenvalues --    0.97527   0.97806   0.98964   0.99386   0.99987
 Alpha virt. eigenvalues --    1.00378   1.02120   1.02488   1.03669   1.03900
 Alpha virt. eigenvalues --    1.04278   1.05028   1.06205   1.07390   1.08218
 Alpha virt. eigenvalues --    1.08603   1.09946   1.10049   1.10769   1.11880
 Alpha virt. eigenvalues --    1.13390   1.13528   1.14481   1.15459   1.15561
 Alpha virt. eigenvalues --    1.17235   1.18075   1.18821   1.19379   1.19640
 Alpha virt. eigenvalues --    1.20833   1.21659   1.22558   1.22970   1.24459
 Alpha virt. eigenvalues --    1.25552   1.25736   1.26674   1.27405   1.27870
 Alpha virt. eigenvalues --    1.28585   1.29360   1.30755   1.32045   1.33948
 Alpha virt. eigenvalues --    1.35021   1.36225   1.37938   1.38633   1.39244
 Alpha virt. eigenvalues --    1.39697   1.40129   1.41732   1.42550   1.43610
 Alpha virt. eigenvalues --    1.44958   1.45765   1.47591   1.48389   1.50388
 Alpha virt. eigenvalues --    1.50662   1.52251   1.53300   1.54103   1.54974
 Alpha virt. eigenvalues --    1.55796   1.56125   1.56884   1.57530   1.58174
 Alpha virt. eigenvalues --    1.58400   1.58624   1.59066   1.59266   1.59870
 Alpha virt. eigenvalues --    1.60719   1.61526   1.61941   1.62345   1.62993
 Alpha virt. eigenvalues --    1.63548   1.63898   1.64460   1.64826   1.65530
 Alpha virt. eigenvalues --    1.66262   1.66720   1.68089   1.68215   1.69551
 Alpha virt. eigenvalues --    1.69843   1.70653   1.71821   1.72572   1.73287
 Alpha virt. eigenvalues --    1.74200   1.74851   1.76106   1.77008   1.78077
 Alpha virt. eigenvalues --    1.79114   1.80241   1.81141   1.81834   1.82659
 Alpha virt. eigenvalues --    1.83691   1.84825   1.85149   1.85480   1.87821
 Alpha virt. eigenvalues --    1.89099   1.89982   1.90783   1.91351   1.92182
 Alpha virt. eigenvalues --    1.94566   1.94839   1.95566   1.96534   1.97143
 Alpha virt. eigenvalues --    1.98434   1.99453   1.99881   2.00414   2.00950
 Alpha virt. eigenvalues --    2.02172   2.03228   2.04276   2.04999   2.05790
 Alpha virt. eigenvalues --    2.05966   2.07241   2.07681   2.08309   2.09560
 Alpha virt. eigenvalues --    2.10062   2.11041   2.13644   2.14387   2.15431
 Alpha virt. eigenvalues --    2.15883   2.17072   2.17567   2.18984   2.19649
 Alpha virt. eigenvalues --    2.19951   2.20993   2.22197   2.23853   2.25055
 Alpha virt. eigenvalues --    2.25674   2.27234   2.28203   2.30061   2.30384
 Alpha virt. eigenvalues --    2.30946   2.31296   2.31822   2.32493   2.32714
 Alpha virt. eigenvalues --    2.33100   2.33732   2.34849   2.35437   2.36237
 Alpha virt. eigenvalues --    2.36490   2.37079   2.37358   2.37784   2.38711
 Alpha virt. eigenvalues --    2.39344   2.40157   2.40593   2.41257   2.41682
 Alpha virt. eigenvalues --    2.42268   2.42899   2.43310   2.44102   2.44430
 Alpha virt. eigenvalues --    2.45070   2.46292   2.46676   2.47707   2.48446
 Alpha virt. eigenvalues --    2.49774   2.50846   2.51529   2.52612   2.53618
 Alpha virt. eigenvalues --    2.54310   2.55488   2.55856   2.57003   2.57348
 Alpha virt. eigenvalues --    2.57581   2.58132   2.58652   2.59489   2.60054
 Alpha virt. eigenvalues --    2.60214   2.61240   2.61511   2.62263   2.62710
 Alpha virt. eigenvalues --    2.63035   2.63223   2.64171   2.65071   2.65515
 Alpha virt. eigenvalues --    2.66308   2.66805   2.68462   2.68737   2.68743
 Alpha virt. eigenvalues --    2.69616   2.70203   2.71685   2.72863   2.72994
 Alpha virt. eigenvalues --    2.74159   2.75542   2.76303   2.76489   2.77197
 Alpha virt. eigenvalues --    2.77936   2.79311   2.80043   2.82246   2.82731
 Alpha virt. eigenvalues --    2.83711   2.84278   2.85108   2.85834   2.86654
 Alpha virt. eigenvalues --    2.87535   2.88585   2.89010   2.90031   2.91444
 Alpha virt. eigenvalues --    2.92845   2.93941   2.94543   2.95882   2.96749
 Alpha virt. eigenvalues --    2.97413   2.98764   2.99419   3.00393   3.01437
 Alpha virt. eigenvalues --    3.02270   3.03358   3.04789   3.05824   3.06482
 Alpha virt. eigenvalues --    3.06572   3.07462   3.08264   3.08595   3.09986
 Alpha virt. eigenvalues --    3.10846   3.12374   3.12882   3.13697   3.15045
 Alpha virt. eigenvalues --    3.15332   3.16103   3.16541   3.18305   3.18860
 Alpha virt. eigenvalues --    3.19387   3.19869   3.20634   3.21145   3.21383
 Alpha virt. eigenvalues --    3.22619   3.23107   3.23451   3.24068   3.25449
 Alpha virt. eigenvalues --    3.26641   3.26784   3.27844   3.28205   3.29298
 Alpha virt. eigenvalues --    3.29526   3.29889   3.30462   3.31312   3.31664
 Alpha virt. eigenvalues --    3.32391   3.33418   3.33586   3.34169   3.34979
[...]
 0767,0.00000178,0.00000614,0.00000105,0.00000830,0.00000459,0.00001112
 ,0.00004032,-0.00001380,0.00001488,-0.00000258,0.00002462,-0.00000932,
 -0.00002573,0.00008896,0.00031489,0.00032118,-0.00010339,0.00009243,-0
 .00010395,0.00004933,-0.00001339,0.00002643,0.00002068,0.00006148,0.00
 007359,0.00002046,0.00000607,-0.00000115,-0.00006323,-0.00015334,0.000
 00283,-0.00012012,0.00035155,0.00008743,0.00007110,0.00012582,0.000187
 16,0.00001648,-0.00021086,-0.00001139,0.00013800,-0.00190551,-0.001483
 05,0.00127327,0.00894982,0.04992154,0.00007196,-0.00001875,-0.00002165
 ,-0.00027031,-0.00001936,0.00000619,-0.00022050,-0.00064209,0.00012594
 ,-0.00006354,0.00031259,-0.00012613,-0.00013553,0.00066615,0.00008770,
 0.00014491,-0.00004692,0.00013787,-0.00002933,-0.00007928,-0.00013053,
 0.00025360,-0.00052508,-0.00048331,0.00066472,0.00048497,0.00132894,0.
 00485735,0.00832205,-0.01363516,0.00163515,0.00013366,-0.00046169,-0.0
 0001524,-0.00004294,0.00000558,0.00007186,0.00016989,-0.00031756,-0.00
 003336,-0.00002897,0.00014601,-0.00124263,-0.00118772,0.00040784,-0.08
 639340,-0.04075837,0.08852433,-0.00122229,-0.00112800,-0.00236356,-0.0
 0002762,0.00000117,0.00000390,0.00001911,0.00000649,0.00001422,-0.0000
 0898,-0.00002661,-0.00000950,0.00000075,0.00001373,0.00000664,0.000005
 82,0.00000710,-0.00001136,0.00001886,-0.00001228,-0.00008609,-0.000047
 21,0.00003371,-0.00002517,-0.00002947,0.00003001,-0.00002534,0.0000830
 7,0.00004575,0.00017145,-0.00007799,0.00004575,0.00002258,0.00006021,0
 .00000222,-0.00004519,-0.00009004,0.00027742,0.00041624,0.00009136,-0.
 00001820,0.00019457,0.00002824,0.00004674,0.00001291,0.00001565,0.0000
 4265,0.00003062,0.00000769,0.00000665,-0.00000583,-0.00001325,-0.00000
 358,-0.00000129,-0.00240633,-0.00215989,0.00031653,-0.00009823,-0.0000
 8236,-0.00003039,0.00012614,0.00031254,0.00009775,-0.00962877,-0.01367
 016,0.02593548,0.00046223,0.00171530,-0.00432982,0.09254938,-0.0000620
 3,0.00002831,0.00004465,0.00023372,-0.00001598,-0.00013470,0.00014845,
 0.00021501,-0.00000232,-0.00004306,-0.00007935,0.00000622,-0.00000413,
 -0.00021434,-0.00003308,-0.00000901,-0.00000445,0.00000585,-0.00000710
 ,0.00001408,-0.00001097,0.00010397,-0.00030207,0.00014594,0.00059082,0
 .00104124,0.00061485,0.00550244,0.00409063,-0.01143546,0.00037439,-0.0
 0009791,0.00049868,-0.00001158,0.00007132,-0.00009638,-0.00011948,0.00
 011109,-0.00027536,0.00006972,-0.00003365,0.00005709,-0.00173519,-0.00
 054141,0.00042983,-0.04064315,-0.08819380,0.09263029,-0.00126021,-0.00
 071553,-0.00196824,-0.00002511,-0.00001139,0.00002087,0.00002067,-0.00
 002712,-0.00001184,-0.00000494,0.00002545,0.00001063,0.00000886,-0.000
 01610,-0.00000210,0.00000366,-0.00001149,-0.00000874,-0.00002023,0.000
 02592,0.00004219,0.00000513,0.00000971,0.00000160,0.00000428,0.0000025
 2,-0.00000173,0.00000744,-0.00002767,0.00003890,-0.00000638,0.00000255
 ,0.00000090,0.00001222,-0.00001241,-0.00001610,0.00036318,-0.00008458,
 0.00031640,0.00002647,-0.00002690,-0.00008038,-0.00000072,-0.00006647,
 0.00001700,0.00000434,0.00002597,0.00002884,0.00000010,-0.00003121,-0.
 00000750,0.00000587,0.00002565,0.00000600,-0.00157833,-0.00091739,0.00
 005481,0.00006415,-0.00023042,0.00001835,0.00010237,-0.00034531,0.0001
 9768,0.00251353,0.00263109,-0.00731075,-0.01248124,-0.01093350,0.02676
 851,0.04798187,0.09361120,-0.00005817,0.00002056,0.00008074,0.00022864
 ,0.00001427,-0.00008615,0.00008590,0.00023744,-0.00004813,0.00000496,-
 0.00009963,0.00002796,0.00000912,-0.00017912,0.00003174,-0.00001933,-0
 .00001384,-0.00003171,0.00000041,0.00002177,-0.00001486,0.00026839,-0.
 00060592,0.00051151,-0.00034141,0.00081793,0.00153274,0.01125047,0.011
 78977,-0.02162240,0.00135365,-0.00061774,0.00051160,-0.00012711,0.0001
 2441,0.00010802,-0.00014538,-0.00055907,-0.00059419,-0.00009795,-0.000
 05241,0.00014901,0.00143503,0.00000846,-0.00060483,0.08553361,0.090008
 02,-0.24187447,-0.00398041,-0.00284058,-0.00370171,-0.00003659,-0.0000
 9687,-0.00005804,-0.00002038,0.00000089,0.00007354,-0.00000873,0.00002
 617,0.00000200,0.00001067,-0.00002865,0.00000081,0.00000577,-0.0000074
 9,-0.00001875,-0.00006948,0.00007895,0.00007018,0.00001549,-0.00000703
 ,0.00001122,0.00000484,0.00000183,0.00000648,0.00001969,-0.00000605,-0
 .00001488,0.00000350,-0.00000629,0.00000613,-0.00001137,-0.00001014,0.
 00001334,-0.00066479,0.00032993,0.00035392,0.00014188,0.00010258,0.000
 29145,0.00009782,0.00006390,0.00003818,0.00000158,0.00005215,0.0000646
 0,0.00001037,-0.00002975,-0.00001840,-0.00001966,-0.00004257,-0.000020
 97,0.00062033,0.00134539,0.00068293,0.00012840,0.00055972,0.00032210,-
 0.00013163,-0.00023511,0.00002136,0.00017629,0.00009888,-0.00070271,-0
 .00147068,-0.00107348,0.00230271,-0.09482059,-0.09970935,0.26316877,0.
 00002350,0.00000357,0.00007767,0.00014891,-0.00003127,-0.00041672,-0.0
 0032750,-0.00087949,-0.00002737,0.00000781,0.00033673,-0.00001100,-0.0
 0006724,0.00059595,-0.00015570,0.00014038,0.00005005,0.00003966,-0.000
 02651,-0.00004195,0.00002930,-0.00012645,0.00017945,0.00003228,0.00025
 468,0.00122454,0.00003691,0.00556200,0.00497815,0.01380051,0.00135417,
 0.00013279,0.00045020,0.00012045,-0.00001241,0.00011535,0.00015119,0.0
 0007489,0.00009054,-0.00001976,0.00000754,-0.00006526,-0.00004679,-0.0
 0001781,-0.00002653,-0.00097707,-0.00114573,0.00223322,-0.10817738,-0.
 04179293,-0.10544471,-0.00003735,0.00004711,-0.00004109,0.00005291,-0.
 00000066,-0.00001606,-0.00001939,0.00001066,-0.00001045,-0.00000448,-0
 .00002601,0.00001502,0.00002690,0.00002622,-0.00001758,-0.00015034,-0.
 00004737,-0.00005362,-0.00002928,0.00001233,-0.00002076,-0.00003092,0.
 00001142,-0.00000398,0.00001339,0.00000912,0.00007379,-0.00003450,0.00
 002984,-0.00002997,0.00008451,0.00001583,-0.00005288,0.00012321,0.0000
 0731,-0.00017695,0.00010217,0.00032899,-0.00034263,-0.00007095,-0.0001
 1623,-0.00008147,0.00001622,0.00000143,0.00000042,0.00000006,0.0000193
 8,-0.00000021,-0.00000397,0.00000194,0.00001586,0.00003123,0.00002120,
 0.00000969,0.00000424,-0.00000886,0.00000891,-0.00001132,0.00001193,-0
 .00001030,0.00030142,-0.00009476,0.00025866,-0.00015546,-0.00012803,-0
 .00005038,0.00079868,0.00006349,0.00075190,0.11363759,0.00000374,0.000
 00681,-0.00005240,-0.00003772,0.00000078,0.00021241,0.00018962,0.00025
 536,0.00002097,-0.00008065,-0.00006038,-0.00001817,0.00002733,-0.00015
 619,0.00005373,-0.00002869,-0.00005032,-0.00000446,-0.00000168,0.00000
 242,-0.00001440,-0.00005140,-0.00028176,-0.00006550,0.00104166,0.00129
 218,0.00059339,0.00509760,0.00148637,0.01015436,0.00021695,0.00029622,
 -0.00038953,0.00010029,0.00005054,0.00013021,-0.00029151,0.00006502,0.
 00015294,0.00008172,0.00000453,0.00001133,0.00009578,-0.00001158,-0.00
 003987,-0.00071920,-0.00062755,0.00145983,-0.04202983,-0.07591998,-0.0
 7496923,0.00000635,0.00000081,-0.00006508,0.00002855,-0.00001205,0.000
 01066,-0.00000037,-0.00000019,0.00000243,-0.00000117,0.00002245,-0.000
 00677,-0.00001318,-0.00002609,0.00000286,0.00011729,0.00008857,-0.0000
 8471,0.00000902,0.00000601,0.00000499,0.00000759,0.00000806,0.00000172
 ,0.00000053,-0.00000995,0.00002854,-0.00000742,0.00000663,-0.00000078,
 0.00001473,-0.00001304,-0.00001333,0.00006343,-0.00011338,0.00010680,0
 .00023070,-0.00022058,-0.00030199,-0.00009639,0.00003498,-0.00007054,-
 0.00002319,-0.00003025,-0.00003127,-0.00000311,-0.00001198,-0.00001091
 ,0.00001570,0.00003431,-0.00001176,0.00001058,-0.00000022,-0.00002429,
 0.00001118,-0.00000020,-0.00003160,-0.00001181,-0.00000404,0.00002156,
 -0.00020963,-0.00011222,-0.00004621,-0.00001885,0.00041422,0.00028053,
 0.00001328,0.00064048,0.00053553,0.04688468,0.07865477,-0.00001654,0.0
 0001355,0.00002740,0.00003736,0.00006622,-0.00019071,-0.00017164,-0.00
 033483,-0.00005554,0.00005011,0.00010136,0.00001779,0.00003017,0.00021
 455,0.00010760,0.00001698,-0.00000219,-0.00001423,0.00002543,-0.000022
 89,-0.00003968,0.00011369,0.00000101,0.00067633,-0.00036655,-0.0017669
 4,0.00204311,-0.01340865,-0.00978303,-0.02347424,-0.00116480,0.0005626
 5,0.00090732,0.00033826,0.00002444,-0.00029392,0.00005888,0.00016549,0
 .00026136,0.00009998,0.00000249,-0.00003813,-0.00005060,-0.00016003,0.
 00002575,0.00370676,0.00325156,-0.00423055,-0.10322619,-0.07234574,-0.
 22573603,0.00011521,0.00010737,0.00008424,-0.00004844,-0.00002230,0.00
 001829,-0.00000028,0.00000640,-0.00000058,-0.00000008,-0.00001166,0.00
 000948,0.00001221,0.00002712,0.00000191,-0.00016981,0.00010695,-0.0000
 9108,0.00001030,-0.00000911,0.00000159,-0.00000742,0.00000832,0.000006
 49,0.00000562,0.00002785,0.00001269,-0.00001180,0.00000767,0.00001031,
 -0.00001331,0.00000213,0.00000818,-0.00021297,-0.00020269,0.00030349,0
 .00053978,-0.00042619,0.00019546,0.00027131,0.00023516,0.00001802,0.00
 001666,0.00005077,0.00002679,0.00000160,-0.00002138,0.00001131,-0.0000
 0359,0.00001810,0.00001440,-0.00011294,0.00003794,0.00003402,0.0000113
 2,0.00004574,0.00008461,0.00001230,-0.00005922,0.00002058,0.00017462,0
 .00003282,0.00029511,0.00012959,-0.00002235,0.00034251,-0.00083030,-0.
 00076617,-0.00152278,0.11175816,0.07918748,0.24786454,0.00001313,0.000
 03553,-0.00029122,-0.00030383,0.00010610,0.00074029,0.00025486,-0.0001
 8953,0.00010134,-0.00014649,0.00008024,-0.00002488,-0.00035675,-0.0000
 8500,-0.00025642,0.00021215,0.00023459,0.00009168,0.00000772,0.0000191
 4,-0.00003166,0.00063640,-0.00070014,0.00073237,-0.00156042,-0.0025413
 9,0.00236464,-0.00098636,-0.01401598,-0.00144364,0.00099493,-0.0008651
 6,-0.00030547,0.00012459,0.00004921,-0.00016574,0.00041706,-0.00067770
 ,0.00022688,-0.00019458,0.00002023,0.00007645,-0.00011678,-0.00004197,
 -0.00000248,0.00019666,-0.00002909,-0.00066330,-0.04704164,0.00386896,
 -0.00021334,-0.00003495,0.00002056,0.00004841,0.00000059,0.00000828,-0
 .00001070,0.00000520,-0.00002443,-0.00000125,0.00001416,0.00010209,0.0
 0001159,-0.00000239,0.00001505,0.00001798,-0.00005549,-0.00007652,-0.0
 0038692,-0.00004919,-0.00003021,-0.00002259,-0.00003671,-0.00002406,-0
 .00001695,0.00000899,0.00000480,-0.00006506,0.00001583,-0.00004381,0.0
 0001419,-0.00005158,0.00002219,0.00006393,0.00004342,0.00011485,-0.000
 05600,-0.00046761,0.00011042,-0.00027225,0.00005698,0.00005233,0.00003
 150,0.00000982,0.00002001,-0.00000479,-0.00000322,0.00000796,0.0000175
 9,-0.00001493,-0.00007559,-0.00001121,0.00000647,0.00000971,0.00002607
 ,-0.00001442,0.00000392,0.00005509,0.00000880,0.00000517,-0.00000949,-
 0.00006043,0.00021315,0.00008800,0.00030871,0.00017005,-0.00004453,-0.
 00018388,0.00002696,-0.00006924,-0.00054957,-0.01506811,0.00124446,0.0
 4735773,0.00004770,-0.00001618,0.00009905,-0.00014470,0.00032738,-0.00
 028643,-0.00043433,-0.00022439,-0.00016659,0.00023343,0.00002028,0.000
 08218,0.00033691,0.00028498,0.00018531,-0.00020292,-0.00018247,-0.0000
 7789,0.00002134,-0.00001689,0.00001135,0.00015123,-0.00011551,0.000461
 67,-0.00263680,-0.00131149,0.00197027,0.00143135,-0.01090892,-0.002836
 37,0.00078262,0.00036190,0.00025989,0.00009390,0.00000297,-0.00026387,
 0.00114787,-0.00011031,0.00039297,-0.00022057,0.00005610,0.00004627,-0
 .00034158,-0.00015584,0.00002688,0.00025305,0.00001183,-0.00094826,0.0
 0197665,-0.31416143,-0.00095130,0.00000484,0.00009163,-0.00000200,-0.0
 0004371,0.00000433,0.00001028,0.00000754,-0.00002109,-0.00001389,-0.00
 001283,-0.00003695,0.00000884,0.00000298,0.00003113,0.00000575,-0.0000
 4766,-0.00002180,0.00013765,0.00003734,0.00001951,0.00001241,0.0000304
 0,0.00001827,0.00001582,0.00000508,-0.00000560,0.00005054,-0.00001110,
 0.00003319,-0.00000499,0.00004082,-0.00001767,-0.00002780,-0.00019444,
 0.00008428,-0.00004647,-0.00058972,0.00028071,-0.00022418,0.00006137,-
 0.00000540,0.00002343,0.00003398,0.00002120,0.00000720,0.00002155,0.00
 002964,0.00000690,-0.00003166,-0.00008408,-0.00000693,-0.00001511,0.00
 005105,0.00003131,-0.00002276,0.00000884,0.00016036,0.00002901,-0.0000
 0225,-0.00004443,-0.00006124,-0.00011558,0.00010423,0.00008098,0.00076
 783,0.00019439,-0.00007690,0.00044279,0.00003323,0.00062532,-0.0086072
 2,0.00057161,-0.00184651,0.34189227,-0.00005449,0.00001003,0.00009345,
 0.00026942,-0.00005232,-0.00041923,-0.00001713,0.00009903,0.00006467,0
 .00002389,-0.00005324,-0.00001119,-0.00001167,-0.00010769,-0.00001696,
 -0.00000232,0.00001943,-0.00000651,-0.00001048,0.00001408,0.00003327,-
 0.00051034,0.00019878,0.00010063,0.00414724,0.00312618,-0.00294734,-0.
 00200407,0.02487953,0.00127991,-0.00104747,-0.00000585,0.00037985,-0.0
 0029080,-0.00002250,-0.00002512,-0.00058797,0.00128373,-0.00006393,0.0
 0036592,-0.00003836,-0.00022056,0.00008719,0.00002511,0.00007051,-0.00
 002507,0.00023884,0.00081064,-0.00016332,-0.00363782,-0.04822364,0.000
 02247,-0.00007243,0.00005890,-0.00001118,0.00000899,-0.00001277,-0.000
 01093,0.00002591,0.00000625,0.00000396,-0.00003062,0.00000235,0.000012
 12,-0.00000497,-0.00002229,-0.00003878,0.00004112,0.00004530,-0.000001
 88,0.00000068,0.00000155,-0.00000224,-0.00000966,-0.00000312,-0.000002
 68,-0.00000190,-0.00003466,0.00001299,-0.00001146,-0.00000104,-0.00000
 871,-0.00000367,0.00001162,0.00002014,-0.00003015,-0.00002308,-0.00000
 309,-0.00031012,0.00025952,0.00005524,0.00002183,0.00002867,-0.0000103
 4,-0.00000105,0.00002831,-0.00001011,-0.00000298,-0.00000196,0.0000280
 6,0.00013247,0.00005635,0.00002259,-0.00002677,-0.00003772,0.00001158,
 -0.00002881,-0.00007954,-0.00001441,0.00001470,0.00001100,-0.00020205,
 0.00000649,-0.00000367,0.00011071,-0.00016714,-0.00096294,0.00004542,-
 0.00022911,0.00030738,0.00180074,-0.02608080,0.00101553,-0.00181069,0.
 00114588,0.04965795,-0.00005941,0.00007569,-0.00043424,-0.00020233,0.0
 0014368,0.00086526,0.00066768,0.00073682,0.00013195,-0.00017412,-0.000
 19837,-0.00000483,-0.00104959,-0.00004839,-0.00054771,-0.00015590,0.00
 004712,-0.00002654,0.00007424,0.00005888,-0.00003574,0.00069938,-0.000
 68016,0.00045565,0.00069538,0.00041469,-0.00041898,-0.01534296,0.00492
 217,-0.00015335,0.00017424,-0.00069811,0.00256986,-0.00018154,0.000249
 87,0.00016505,-0.00043363,0.00003486,-0.00024981,0.00006995,-0.0000361
 8,0.00004006,0.00017738,0.00005213,-0.00001452,0.00039944,-0.00009887,
 -0.00119264,-0.29055594,0.07937885,0.00353160,-0.00000623,-0.00018314,
 -0.00008171,-0.00007900,0.00000469,0.00004294,0.00001264,-0.00001100,0
 .00001062,0.00002497,0.00015899,0.00000698,-0.00001316,-0.00001176,0.0
 0002999,0.00018680,-0.00001977,-0.00046940,0.00001522,0.00000251,0.000
 00791,-0.00000746,-0.00000477,-0.00001843,0.00005924,-0.00001883,0.000
 02829,-0.00000465,-0.00001637,0.00002430,0.00001240,-0.00005818,0.0000
 8645,-0.00076150,-0.00016377,0.00021881,0.00038463,-0.00029773,0.00015
 214,0.00000752,0.00001649,-0.00001379,-0.00002577,0.00000442,-0.000011
 02,-0.00000660,-0.00005517,0.00001272,0.00001499,0.00001010,-0.0000088
 6,-0.00001368,-0.00000802,-0.00005583,0.00000770,-0.00000373,-0.000042
 13,-0.00000549,-0.00003443,0.00004928,0.00055620,0.00019261,0.00026699
 ,0.00001028,-0.00013772,0.00001665,0.00027119,-0.00022622,-0.00006580,
 -0.01208937,0.00442556,0.00103513,0.00153704,-0.00052271,-0.00018745,0
 .31510983,0.00000587,0.00000068,-0.00012942,0.00013411,-0.00117349,0.0
 0046068,0.00063011,-0.00018189,0.00035731,-0.00027305,0.00003839,-0.00
 011660,-0.00029393,-0.00068662,-0.00006453,0.00036780,0.00041864,0.000
 06012,0.00003022,0.00011926,-0.00010401,0.00037123,0.00039941,-0.00022
 599,0.00040753,0.00095180,-0.00111027,-0.01263917,0.00289739,0.0008420
 6,-0.00054734,0.00027411,0.00283124,0.00006089,0.00013831,-0.00026132,
 -0.00019081,0.00011099,-0.00021190,0.00004210,-0.00001888,-0.00002461,
 0.00011295,0.00006479,-0.00001419,0.00008898,-0.00018454,-0.00071201,0
 .08041020,-0.07319185,-0.00216401,0.00002753,-0.00001221,-0.00004609,-
 0.00001936,-0.00000905,0.00001166,0.00000711,0.00000605,0.00001329,0.0
 0001064,0.00005350,-0.00000710,-0.00000575,0.00001061,0.00001042,-0.00
 000263,-0.00190461,0.00002103,-0.00009589,-0.00006212,-0.00003084,-0.0
 0005666,-0.00002656,-0.00001961,0.00000547,-0.00002018,-0.00010205,0.0
 0004069,-0.00009415,0.00005577,-0.00015676,-0.00002571,0.00010035,-0.0
 0072962,0.00005532,0.00004033,-0.00015243,0.00011920,-0.00016789,0.000
 03482,0.00000560,-0.00001625,-0.00001722,0.00000049,-0.00000343,-0.000
 01025,-0.00002092,0.00001341,0.00001918,0.00001433,-0.00000059,0.00000
 715,-0.00001205,-0.00003171,0.00001311,-0.00000528,-0.00005120,-0.0000
 1018,-0.00001055,0.00003121,0.00012209,0.00029564,-0.00021216,0.000146
 88,0.00001815,-0.00000924,-0.00014425,-0.00007456,-0.00005069,-0.01136
 835,0.00289764,0.00107996,0.03101368,-0.00872105,-0.00036340,-0.087396
 72,0.07754599,-0.00005899,0.00000850,-0.00004498,-0.00010983,0.0004274
 5,0.00019458,0.00027087,0.00138563,0.00006350,0.00010685,-0.00056129,0
 .00006753,-0.00007642,-0.00045488,-0.00016765,-0.00038102,-0.00023418,
 -0.00010495,0.00003519,0.00002486,0.00006851,-0.00057305,-0.00016704,-
 0.00011781,-0.00083176,-0.00114357,0.00095294,0.02663036,-0.00973703,-
 0.00113361,0.00170495,0.00204992,-0.00384931,0.00065271,-0.00028982,-0
 .00040365,0.00023512,-0.00018402,0.00021189,-0.00004894,0.00003626,-0.
 00002391,-0.00009029,-0.00004956,0.00003485,0.00099117,-0.00036691,0.0
 0152399,0.00072376,-0.00066508,-0.04728750,0.00006087,0.00034452,0.000
 12908,0.00011053,-0.00004638,-0.00006145,0.00001500,-0.00001352,0.0000
 1204,0.00001422,0.00001455,-0.00000370,-0.00001546,-0.00002996,-0.0000
 0019,-0.00005964,-0.00011854,0.00021718,0.00007405,0.00000919,0.000035
 86,0.00009395,-0.00001502,0.00002617,0.00000528,-0.00003705,-0.0000969
 5,0.00004440,-0.00001279,0.00000188,-0.00005393,0.00000032,0.00004957,
 0.00111588,-0.00014312,0.00004034,-0.00000819,0.00003887,-0.00004659,0
 .00009179,0.00012322,-0.00000368,0.00000309,0.00000532,-0.00000065,0.0
 0000036,0.00003517,0.00000501,-0.00000553,-0.00001387,-0.00000349,0.00
 002388,-0.00002472,0.00004505,-0.00001231,-0.00000820,0.00002016,0.000
 00232,0.00003177,-0.00002258,-0.00035718,0.00009001,-0.00084505,-0.000
 01419,0.00001744,-0.00009052,-0.00027823,0.00014422,0.00024456,-0.0245
 4314,0.00936133,0.00124127,0.00022735,-0.00015428,-0.00120637,-0.00571
 582,0.00032226,0.05032862\\-0.00000119,0.00000281,0.00000382,-0.000002
 62,-0.00000534,-0.00000453,-0.00000057,-0.00000118,0.00000643,-0.00000
 147,-0.00000178,-0.00000046,-0.00000032,0.00000307,-0.00000388,-0.0000
 0122,-0.00000063,0.00000368,0.00000055,-0.00000063,-0.00000055,0.00000
 122,0.00000257,0.00000290,-0.00000192,0.00000031,-0.00000407,-0.000000
 77,-0.00000232,0.00000021,0.00000080,0.00000068,0.00000186,0.00000306,
 -0.00000181,-0.00000139,-0.00000286,-0.00000007,0.00000096,0.00000079,
 0.00000028,-0.00000019,0.00000351,0.00000094,-0.00000018,0.00000151,-0
 .00000193,0.00000045,0.00000138,0.00000120,-0.00000058,0.00000046,0.00
 000143,-0.00000019,-0.00000111,0.00000065,0.00000029,-0.00000074,-0.00
 000117,-0.00000117,0.00000065,-0.00000077,-0.00000029,0.,0.00000014,0.
 00000022,0.00000058,-0.00000049,0.00000088,-0.00000008,-0.00000051,-0.
 00000132,0.00000123,-0.00000091,-0.00000118,-0.00000011,-0.00000031,0.
 00000008,0.00000019,-0.00000072,-0.00000032,0.00000045,-0.00000070,-0.
 00000014,0.00000089,0.00000118,-0.00000002,-0.00000004,-0.00000051,-0.
 00000096,-0.00000038,0.00000070,-0.00000014,-0.00000103,-0.00000014,0.
 00000044,-0.00000005,-0.00000053,0.00000016,-0.00000080,0.00000039,0.0
 0000013,-0.00000068,0.00000204,0.00000020,-0.00000054,0.00000097,0.000
 00013,-0.00000021,0.00000024,0.00000033,0.00000072,0.00000031,-0.00000
 129,-0.00000017,0.00000038,-0.00000035,-0.00000061,0.00000116,0.000000
 80,0.00000037,-0.00000030,-0.00000018,0.00000077,-0.00000020,-0.000000
 89,0.00000040,0.00000148,0.00000024\\\@
 The archive entry for this job was punched.


 PERICLES, SOPHOCLES,
 PELOPONESIAN WAR,
 FRENCH VERBS, LATIN VERBS
 H2SO4.
 Job cpu time:       1 days 18 hours 43 minutes 32.8 seconds.
 Elapsed time:       0 days  2 hours  8 minutes 41.1 seconds.
 File lengths (MBytes):  RWF=   1856 Int=      0 D2E=      0 Chk=     45 Scr=      1
 Normal termination of Gaussian 16 at Wed Jan  8 11:28:33 2025.
