 Entering Gaussian System, Link 0=g16
 Input=gjfs/data_set_12-nBA_dormant-41.gjf
 Output=gjfs/data_set_12-nBA_dormant-41.log
 Initial command:
 /usr/local/intel/g16/l1.exe "/scr/Gau-4180736.inp" -scrdir="/scr/"
 Entering Link 1 = /usr/local/intel/g16/l1.exe PID=   4180738.
  
 Copyright (c) 1988-2019, Gaussian, Inc.  All Rights Reserved.
  
 This is part of the Gaussian(R) 16 program.  It is based on
 the Gaussian(R) 09 system (copyright 2009, Gaussian, Inc.),
 the Gaussian(R) 03 system (copyright 2003, Gaussian, Inc.),
 the Gaussian(R) 98 system (copyright 1998, Gaussian, Inc.),
 the Gaussian(R) 94 system (copyright 1995, Gaussian, Inc.),
 the Gaussian 92(TM) system (copyright 1992, Gaussian, Inc.),
 the Gaussian 90(TM) system (copyright 1990, Gaussian, Inc.),
 the Gaussian 88(TM) system (copyright 1988, Gaussian, Inc.),
 the Gaussian 86(TM) system (copyright 1986, Carnegie Mellon
 University), and the Gaussian 82(TM) system (copyright 1983,
 Carnegie Mellon University). Gaussian is a federally registered
 trademark of Gaussian, Inc.
  
 This software contains proprietary and confidential information,
 including trade secrets, belonging to Gaussian, Inc.
  
 This software is provided under written license and may be
 used, copied, transmitted, or stored only in accord with that
 written license.
  
 The following legend is applicable only to US Government
 contracts under FAR:
  
                    RESTRICTED RIGHTS LEGEND
  
 Use, reproduction and disclosure by the US Government is
 subject to restrictions as set forth in subparagraphs (a)
 and (c) of the Commercial Computer Software - Restricted
 Rights clause in FAR 52.227-19.
  
 Gaussian, Inc.
 340 Quinnipiac St., Bldg. 40, Wallingford CT 06492
  
  
 ---------------------------------------------------------------
 Warning -- This program may not be used in any manner that
 competes with the business of Gaussian, Inc. or will provide
 assistance to any competitor of Gaussian, Inc.  The licensee
 of this program is prohibited from giving any competitor of
 Gaussian, Inc. access to this program.  By using this program,
 the user acknowledges that Gaussian, Inc. is engaged in the
 business of creating and licensing software in the field of
 computational chemistry and represents and warrants to the
 licensee that it is not a competitor of Gaussian, Inc. and that
 it will not use this program in any manner prohibited above.
 ---------------------------------------------------------------
  

 Cite this work as:
 Gaussian 16, Revision C.01,
 M. J. Frisch, G. W. Trucks, H. B. Schlegel, G. E. Scuseria, 
 M. A. Robb, J. R. Cheeseman, G. Scalmani, V. Barone, 
 G. A. Petersson, H. Nakatsuji, X. Li, M. Caricato, A. V. Marenich, 
 J. Bloino, B. G. Janesko, R. Gomperts, B. Mennucci, H. P. Hratchian, 
 J. V. Ortiz, A. F. Izmaylov, J. L. Sonnenberg, D. Williams-Young, 
 F. Ding, F. Lipparini, F. Egidi, J. Goings, B. Peng, A. Petrone, 
 T. Henderson, D. Ranasinghe, V. G. Zakrzewski, J. Gao, N. Rega, 
 G. Zheng, W. Liang, M. Hada, M. Ehara, K. Toyota, R. Fukuda, 
 J. Hasegawa, M. Ishida, T. Nakajima, Y. Honda, O. Kitao, H. Nakai, 
 T. Vreven, K. Throssell, J. A. Montgomery, Jr., J. E. Peralta, 
 F. Ogliaro, M. J. Bearpark, J. J. Heyd, E. N. Brothers, K. N. Kudin, 
 V. N. Staroverov, T. A. Keith, R. Kobayashi, J. Normand, 
 K. Raghavachari, A. P. Rendell, J. C. Burant, S. S. Iyengar, 
 J. Tomasi, M. Cossi, J. M. Millam, M. Klene, C. Adamo, R. Cammi, 
 J. W. Ochterski, R. L. Martin, K. Morokuma, O. Farkas, 
 J. B. Foresman, and D. J. Fox, Gaussian, Inc., Wallingford CT, 2019.
 
 ******************************************
 Gaussian 16:  ES64L-G16RevC.01  3-Jul-2019
                 8-Jan-2025 
 ******************************************
 %nprocshared=20
 Will use up to   20 processors via shared memory.
 %mem=30GB
 %chk=outputs/data_set_12-nBA_dormant-41.chk
 ----------------------------------
 #p M062X/DEF2TZVP opt freq pop=NBO
 ----------------------------------
 1/18=20,19=15,26=3,38=1/1,3;
 2/9=110,12=2,17=6,18=5,40=1/2;
 3/5=44,7=101,11=2,25=1,30=1,71=1,74=-55/1,2,3;
 4//1;
 5/5=2,38=5/2;
 6/7=2,8=2,9=2,10=2,28=1,40=1/1,7;
 7//1,2,3,16;
 1/18=20,19=15,26=3/3(2);
 2/9=110/2;
 99//99;
 2/9=110/2;
 3/5=44,7=101,11=2,25=1,30=1,71=1,74=-55/1,2,3;
 4/5=5,16=3,69=1/1;
 5/5=2,38=5/2;
 7//1,2,3,16;
 1/18=20,19=15,26=3/3(-5);
 2/9=110/2;
 6/7=2,8=2,9=2,10=2,19=2,28=1,40=1/1,7;
 99/9=1/99;
 Leave Link    1 at Wed Jan  8 05:43:36 2025, MaxMem=  4026531840 cpu:               8.7 elap:               0.9
 (Enter /usr/local/intel/g16/l101.exe)
 --------------------------
 data_set_12-nBA_dormant-41
 --------------------------
 Symbolic Z-matrix:
 Charge =  0 Multiplicity = 1
 C                     2.36004  -2.78133  -0.65592 
 C                     1.95795  -1.41883  -0.10773 
 C                     2.90352  -0.30295  -0.5517 
 O                     3.86468  -0.4266   -1.31611 
 O                     2.55523   0.88422   0.02783 
 C                     3.3154    2.09098  -0.33833 
 C                     2.66215   3.25108   0.39742 
 O                     0.65149  -0.98892  -0.59636 
 N                    -0.43392  -1.5849    0.18265 
 C                    -1.21803  -2.4411   -0.7569 
 C                    -2.34643  -3.14528   0.01224 
 C                    -1.73863  -1.74558  -2.03142 
 C                    -1.14199  -0.50444   0.93036 
 C                    -0.23196   0.02441   2.0751 
 C                    -0.9071    1.18506   2.83201 
 C                     0.10733  -1.10936   3.06216 
 C                    -1.71844   0.6261    0.08258 
 C                    -3.10574   0.84659   0.07052 
 C                    -3.66645   1.89192  -0.67872 
 C                    -2.83598   2.73687  -1.42897 
 C                    -1.44641   2.53179  -1.4124 
 C                    -0.89016   1.49002  -0.65924 
 H                     3.37676  -3.0388   -0.34409 
 H                     2.32717  -2.77676  -1.74824 
 H                     1.67163  -3.54031  -0.27345 
 H                     1.93991  -1.42906   0.9864 
 H                     3.27286   2.2081   -1.42544 
 H                     4.35996   1.94535  -0.04707 
 H                     1.61353   3.35357   0.10429 
 H                     3.18516   4.18324   0.1605 
 H                     2.70292   3.09313   1.47862 
 H                    -0.49828  -3.20543  -1.07109 
 H                    -3.17436  -2.46077   0.22899 
 H                    -1.97516  -3.56359   0.9537 
 H                    -2.74684  -3.96121  -0.59804 
 H                    -2.07369  -2.50849  -2.7442 
 H                    -0.94276  -1.15902  -2.49699 
 H                    -2.58023  -1.08045  -1.82074 
 H                    -1.97866  -1.02053   1.41891 
 H                     0.69019   0.40775   1.62096 
 H                    -1.89131   0.88104   3.21355 
 H                    -1.04991   2.06181   2.19387 
 H                    -0.2914    1.48086   3.68921 
 H                    -0.78302  -1.38624   3.64278 
 H                     0.88074  -0.78905   3.76989 
 H                     0.45374  -2.00491   2.53816 
 H                    -3.75598   0.19516   0.64993 
 H                    -4.74101   2.04481  -0.67704 
 H                    -3.26348   3.54486  -2.01403 
 H                    -0.79804   3.18446  -1.9894 
 H                     0.18136   1.32938  -0.64785 
 
 ITRead=  0  0  0  0  0  0  0  0  0  0  0  0  0  0  0  0  0  0  0  0
 ITRead=  0  0  0  0  0  0  0  0  0  0  0  0  0  0  0  0  0  0  0  0
 ITRead=  0  0  0  0  0  0  0  0  0  0  0
 MicOpt= -1 -1 -1 -1 -1 -1 -1 -1 -1 -1 -1 -1 -1 -1 -1 -1 -1 -1 -1 -1
 MicOpt= -1 -1 -1 -1 -1 -1 -1 -1 -1 -1 -1 -1 -1 -1 -1 -1 -1 -1 -1 -1
 MicOpt= -1 -1 -1 -1 -1 -1 -1 -1 -1 -1 -1
 NAtoms=     51 NQM=       51 NQMF=       0 NMMI=      0 NMMIF=      0
                NMic=       0 NMicF=      0.
                    Isotopes and Nuclear Properties:
 (Nuclear quadrupole moments (NQMom) in fm**2, nuclear magnetic moments (NMagM)
  in nuclear magnetons)

  Atom         1           2           3           4           5           6           7           8           9          10
 IAtWgt=          12          12          12          16          16          12          12          16          14          12
 AtmWgt=  12.0000000  12.0000000  12.0000000  15.9949146  15.9949146  12.0000000  12.0000000  15.9949146  14.0030740  12.0000000
 NucSpn=           0           0           0           0           0           0           0           0           2           0
 AtZEff=  -0.0000000  -0.0000000  -0.0000000  -0.0000000  -0.0000000  -0.0000000  -0.0000000  -0.0000000  -0.0000000  -0.0000000
 NQMom=    0.0000000   0.0000000   0.0000000   0.0000000   0.0000000   0.0000000   0.0000000   0.0000000   2.0440000   0.0000000
 NMagM=    0.0000000   0.0000000   0.0000000   0.0000000   0.0000000   0.0000000   0.0000000   0.0000000   0.4037610   0.0000000
 AtZNuc=   6.0000000   6.0000000   6.0000000   8.0000000   8.0000000   6.0000000   6.0000000   8.0000000   7.0000000   6.0000000

  Atom        11          12          13          14          15          16          17          18          19          20
 IAtWgt=          12          12          12          12          12          12          12          12          12          12
 AtmWgt=  12.0000000  12.0000000  12.0000000  12.0000000  12.0000000  12.0000000  12.0000000  12.0000000  12.0000000  12.0000000
 NucSpn=           0           0           0           0           0           0           0           0           0           0
 AtZEff=  -0.0000000  -0.0000000  -0.0000000  -0.0000000  -0.0000000  -0.0000000  -0.0000000  -0.0000000  -0.0000000  -0.0000000
 NQMom=    0.0000000   0.0000000   0.0000000   0.0000000   0.0000000   0.0000000   0.0000000   0.0000000   0.0000000   0.0000000
 NMagM=    0.0000000   0.0000000   0.0000000   0.0000000   0.0000000   0.0000000   0.0000000   0.0000000   0.0000000   0.0000000
 AtZNuc=   6.0000000   6.0000000   6.0000000   6.0000000   6.0000000   6.0000000   6.0000000   6.0000000   6.0000000   6.0000000

  Atom        21          22          23          24          25          26          27          28          29          30
 IAtWgt=          12          12           1           1           1           1           1           1           1           1
 AtmWgt=  12.0000000  12.0000000   1.0078250   1.0078250   1.0078250   1.0078250   1.0078250   1.0078250   1.0078250   1.0078250
 NucSpn=           0           0           1           1           1           1           1           1           1           1
 AtZEff=  -0.0000000  -0.0000000  -0.0000000  -0.0000000  -0.0000000  -0.0000000  -0.0000000  -0.0000000  -0.0000000  -0.0000000
 NQMom=    0.0000000   0.0000000   0.0000000   0.0000000   0.0000000   0.0000000   0.0000000   0.0000000   0.0000000   0.0000000
 NMagM=    0.0000000   0.0000000   2.7928460   2.7928460   2.7928460   2.7928460   2.7928460   2.7928460   2.7928460   2.7928460
 AtZNuc=   6.0000000   6.0000000   1.0000000   1.0000000   1.0000000   1.0000000   1.0000000   1.0000000   1.0000000   1.0000000

  Atom        31          32          33          34          35          36          37          38          39          40
 IAtWgt=           1           1           1           1           1           1           1           1           1           1
 AtmWgt=   1.0078250   1.0078250   1.0078250   1.0078250   1.0078250   1.0078250   1.0078250   1.0078250   1.0078250   1.0078250
 NucSpn=           1           1           1           1           1           1           1           1           1           1
 AtZEff=  -0.0000000  -0.0000000  -0.0000000  -0.0000000  -0.0000000  -0.0000000  -0.0000000  -0.0000000  -0.0000000  -0.0000000
 NQMom=    0.0000000   0.0000000   0.0000000   0.0000000   0.0000000   0.0000000   0.0000000   0.0000000   0.0000000   0.0000000
 NMagM=    2.7928460   2.7928460   2.7928460   2.7928460   2.7928460   2.7928460   2.7928460   2.7928460   2.7928460   2.7928460
 AtZNuc=   1.0000000   1.0000000   1.0000000   1.0000000   1.0000000   1.0000000   1.0000000   1.0000000   1.0000000   1.0000000

  Atom        41          42          43          44          45          46          47          48          49          50
 IAtWgt=           1           1           1           1           1           1           1           1           1           1
 AtmWgt=   1.0078250   1.0078250   1.0078250   1.0078250   1.0078250   1.0078250   1.0078250   1.0078250   1.0078250   1.0078250
 NucSpn=           1           1           1           1           1           1           1           1           1           1
 AtZEff=  -0.0000000  -0.0000000  -0.0000000  -0.0000000  -0.0000000  -0.0000000  -0.0000000  -0.0000000  -0.0000000  -0.0000000
 NQMom=    0.0000000   0.0000000   0.0000000   0.0000000   0.0000000   0.0000000   0.0000000   0.0000000   0.0000000   0.0000000
 NMagM=    2.7928460   2.7928460   2.7928460   2.7928460   2.7928460   2.7928460   2.7928460   2.7928460   2.7928460   2.7928460
 AtZNuc=   1.0000000   1.0000000   1.0000000   1.0000000   1.0000000   1.0000000   1.0000000   1.0000000   1.0000000   1.0000000

  Atom        51
 IAtWgt=           1
 AtmWgt=   1.0078250
 NucSpn=           1
 AtZEff=  -0.0000000
 NQMom=    0.0000000
 NMagM=    2.7928460
 AtZNuc=   1.0000000
 Leave Link  101 at Wed Jan  8 05:43:37 2025, MaxMem=  4026531840 cpu:              22.8 elap:               1.2
 (Enter /usr/local/intel/g16/l103.exe)

 GradGradGradGradGradGradGradGradGradGradGradGradGradGradGradGradGradGrad
 Berny optimization.
 Initialization pass.
                           ----------------------------
                           !    Initial Parameters    !
                           ! (Angstroms and Degrees)  !
 --------------------------                            --------------------------
 ! Name  Definition              Value          Derivative Info.                !
 --------------------------------------------------------------------------------
 ! R1    R(1,2)                  1.5227         estimate D2E/DX2                !
 ! R2    R(1,23)                 1.0942         estimate D2E/DX2                !
 ! R3    R(1,24)                 1.0928         estimate D2E/DX2                !
 ! R4    R(1,25)                 1.0937         estimate D2E/DX2                !
 ! R5    R(2,3)                  1.5285         estimate D2E/DX2                !
 ! R6    R(2,8)                  1.4596         estimate D2E/DX2                !
 ! R7    R(2,26)                 1.0943         estimate D2E/DX2                !
 ! R8    R(3,4)                  1.2343         estimate D2E/DX2                !
 ! R9    R(3,5)                  1.3662         estimate D2E/DX2                !
 ! R10   R(5,6)                  1.4725         estimate D2E/DX2                !
 ! R11   R(6,7)                  1.5211         estimate D2E/DX2                !
 ! R12   R(6,27)                 1.0942         estimate D2E/DX2                !
 ! R13   R(6,28)                 1.0941         estimate D2E/DX2                !
 ! R14   R(7,29)                 1.0936         estimate D2E/DX2                !
 ! R15   R(7,30)                 1.0948         estimate D2E/DX2                !
 ! R16   R(7,31)                 1.0934         estimate D2E/DX2                !
 ! R17   R(8,9)                  1.4629         estimate D2E/DX2                !
 ! R18   R(9,10)                 1.4935         estimate D2E/DX2                !
 ! R19   R(9,13)                 1.4926         estimate D2E/DX2                !
 ! R20   R(10,11)                1.5365         estimate D2E/DX2                !
 ! R21   R(10,12)                1.5425         estimate D2E/DX2                !
 ! R22   R(10,32)                1.0959         estimate D2E/DX2                !
 ! R23   R(11,33)                1.0959         estimate D2E/DX2                !
 ! R24   R(11,34)                1.0951         estimate D2E/DX2                !
 ! R25   R(11,35)                1.0948         estimate D2E/DX2                !
 ! R26   R(12,36)                1.0965         estimate D2E/DX2                !
 ! R27   R(12,37)                1.0928         estimate D2E/DX2                !
 ! R28   R(12,38)                1.0932         estimate D2E/DX2                !
 ! R29   R(13,14)                1.5551         estimate D2E/DX2                !
 ! R30   R(13,17)                1.5262         estimate D2E/DX2                !
 ! R31   R(13,39)                1.0977         estimate D2E/DX2                !
 ! R32   R(14,15)                1.5414         estimate D2E/DX2                !
 ! R33   R(14,16)                1.5411         estimate D2E/DX2                !
 ! R34   R(14,40)                1.0971         estimate D2E/DX2                !
 ! R35   R(15,41)                1.0985         estimate D2E/DX2                !
 ! R36   R(15,42)                1.0938         estimate D2E/DX2                !
 ! R37   R(15,43)                1.0961         estimate D2E/DX2                !
 ! R38   R(16,44)                1.0984         estimate D2E/DX2                !
 ! R39   R(16,45)                1.0962         estimate D2E/DX2                !
 ! R40   R(16,46)                1.0939         estimate D2E/DX2                !
 ! R41   R(17,18)                1.4048         estimate D2E/DX2                !
 ! R42   R(17,22)                1.4081         estimate D2E/DX2                !
 ! R43   R(18,19)                1.403          estimate D2E/DX2                !
 ! R44   R(18,47)                1.0876         estimate D2E/DX2                !
 ! R45   R(19,20)                1.4023         estimate D2E/DX2                !
 ! R46   R(19,48)                1.0854         estimate D2E/DX2                !
 ! R47   R(20,21)                1.4047         estimate D2E/DX2                !
 ! R48   R(20,49)                1.0853         estimate D2E/DX2                !
 ! R49   R(21,22)                1.4007         estimate D2E/DX2                !
 ! R50   R(21,50)                1.086          estimate D2E/DX2                !
 ! R51   R(22,51)                1.0836         estimate D2E/DX2                !
 ! A1    A(2,1,23)             110.6908         estimate D2E/DX2                !
 ! A2    A(2,1,24)             110.3753         estimate D2E/DX2                !
 ! A3    A(2,1,25)             109.1979         estimate D2E/DX2                !
 ! A4    A(23,1,24)            108.2875         estimate D2E/DX2                !
 ! A5    A(23,1,25)            108.7781         estimate D2E/DX2                !
 ! A6    A(24,1,25)            109.4813         estimate D2E/DX2                !
 ! A7    A(1,2,3)              112.6631         estimate D2E/DX2                !
 ! A8    A(1,2,8)              112.2958         estimate D2E/DX2                !
 ! A9    A(1,2,26)             110.851          estimate D2E/DX2                !
 ! A10   A(3,2,8)              103.9718         estimate D2E/DX2                !
 ! A11   A(3,2,26)             107.9044         estimate D2E/DX2                !
 ! A12   A(8,2,26)             108.827          estimate D2E/DX2                !
 ! A13   A(2,3,4)              126.049          estimate D2E/DX2                !
 ! A14   A(2,3,5)              110.6989         estimate D2E/DX2                !
 ! A15   A(4,3,5)              123.2489         estimate D2E/DX2                !
 ! A16   A(3,5,6)              118.3631         estimate D2E/DX2                !
 ! A17   A(5,6,7)              106.4421         estimate D2E/DX2                !
 ! A18   A(5,6,27)             108.3425         estimate D2E/DX2                !
 ! A19   A(5,6,28)             108.5164         estimate D2E/DX2                !
 ! A20   A(7,6,27)             112.4712         estimate D2E/DX2                !
 ! A21   A(7,6,28)             112.5034         estimate D2E/DX2                !
 ! A22   A(27,6,28)            108.4104         estimate D2E/DX2                !
 ! A23   A(6,7,29)             110.7076         estimate D2E/DX2                !
 ! A24   A(6,7,30)             109.8477         estimate D2E/DX2                !
 ! A25   A(6,7,31)             110.6154         estimate D2E/DX2                !
 ! A26   A(29,7,30)            108.6784         estimate D2E/DX2                !
 ! A27   A(29,7,31)            108.3201         estimate D2E/DX2                !
 ! A28   A(30,7,31)            108.6123         estimate D2E/DX2                !
 ! A29   A(2,8,9)              111.4593         estimate D2E/DX2                !
 ! A30   A(8,9,10)             106.7428         estimate D2E/DX2                !
 ! A31   A(8,9,13)             108.8944         estimate D2E/DX2                !
 ! A32   A(10,9,13)            118.7549         estimate D2E/DX2                !
 ! A33   A(9,10,11)            109.475          estimate D2E/DX2                !
 ! A34   A(9,10,12)            116.008          estimate D2E/DX2                !
 ! A35   A(9,10,32)            103.6141         estimate D2E/DX2                !
 ! A36   A(11,10,12)           111.865          estimate D2E/DX2                !
 ! A37   A(11,10,32)           107.831          estimate D2E/DX2                !
 ! A38   A(12,10,32)           107.4135         estimate D2E/DX2                !
 ! A39   A(10,11,33)           111.5658         estimate D2E/DX2                !
 ! A40   A(10,11,34)           110.8827         estimate D2E/DX2                !
 ! A41   A(10,11,35)           109.3381         estimate D2E/DX2                !
 ! A42   A(33,11,34)           108.9469         estimate D2E/DX2                !
 ! A43   A(33,11,35)           107.4251         estimate D2E/DX2                !
 ! A44   A(34,11,35)           108.5757         estimate D2E/DX2                !
 ! A45   A(10,12,36)           109.0579         estimate D2E/DX2                !
 ! A46   A(10,12,37)           110.3806         estimate D2E/DX2                !
 ! A47   A(10,12,38)           112.021          estimate D2E/DX2                !
 ! A48   A(36,12,37)           108.6059         estimate D2E/DX2                !
 ! A49   A(36,12,38)           108.2605         estimate D2E/DX2                !
 ! A50   A(37,12,38)           108.4337         estimate D2E/DX2                !
 ! A51   A(9,13,14)            109.7142         estimate D2E/DX2                !
 ! A52   A(9,13,17)            115.9216         estimate D2E/DX2                !
 ! A53   A(9,13,39)            104.1337         estimate D2E/DX2                !
 ! A54   A(14,13,17)           112.2123         estimate D2E/DX2                !
 ! A55   A(14,13,39)           106.1583         estimate D2E/DX2                !
 ! A56   A(17,13,39)           107.9151         estimate D2E/DX2                !
 ! A57   A(13,14,15)           111.176          estimate D2E/DX2                !
 ! A58   A(13,14,16)           110.4958         estimate D2E/DX2                !
 ! A59   A(13,14,40)           107.8181         estimate D2E/DX2                !
 ! A60   A(15,14,16)           109.6271         estimate D2E/DX2                !
 ! A61   A(15,14,40)           107.9592         estimate D2E/DX2                !
 ! A62   A(16,14,40)           109.7041         estimate D2E/DX2                !
 ! A63   A(14,15,41)           110.7691         estimate D2E/DX2                !
 ! A64   A(14,15,42)           111.98           estimate D2E/DX2                !
 ! A65   A(14,15,43)           109.9501         estimate D2E/DX2                !
 ! A66   A(41,15,42)           107.9097         estimate D2E/DX2                !
 ! A67   A(41,15,43)           107.8396         estimate D2E/DX2                !
 ! A68   A(42,15,43)           108.2587         estimate D2E/DX2                !
 ! A69   A(14,16,44)           110.216          estimate D2E/DX2                !
 ! A70   A(14,16,45)           110.7253         estimate D2E/DX2                !
 ! A71   A(14,16,46)           111.4212         estimate D2E/DX2                !
 ! A72   A(44,16,45)           107.7148         estimate D2E/DX2                !
 ! A73   A(44,16,46)           107.6705         estimate D2E/DX2                !
 ! A74   A(45,16,46)           108.9693         estimate D2E/DX2                !
 ! A75   A(13,17,18)           119.6076         estimate D2E/DX2                !
 ! A76   A(13,17,22)           121.6659         estimate D2E/DX2                !
 ! A77   A(18,17,22)           118.6919         estimate D2E/DX2                !
 ! A78   A(17,18,19)           121.0777         estimate D2E/DX2                !
 ! A79   A(17,18,47)           119.4622         estimate D2E/DX2                !
 ! A80   A(19,18,47)           119.46           estimate D2E/DX2                !
 ! A81   A(18,19,20)           119.865          estimate D2E/DX2                !
 ! A82   A(18,19,48)           119.9859         estimate D2E/DX2                !
 ! A83   A(20,19,48)           120.1491         estimate D2E/DX2                !
 ! A84   A(19,20,21)           119.442          estimate D2E/DX2                !
 ! A85   A(19,20,49)           120.2465         estimate D2E/DX2                !
 ! A86   A(21,20,49)           120.311          estimate D2E/DX2                !
 ! A87   A(20,21,22)           120.5153         estimate D2E/DX2                !
 ! A88   A(20,21,50)           119.7753         estimate D2E/DX2                !
 ! A89   A(22,21,50)           119.7093         estimate D2E/DX2                !
 ! A90   A(17,22,21)           120.3977         estimate D2E/DX2                !
 ! A91   A(17,22,51)           119.0258         estimate D2E/DX2                !
 ! A92   A(21,22,51)           120.5725         estimate D2E/DX2                !
 ! D1    D(23,1,2,3)            58.0838         estimate D2E/DX2                !
 ! D2    D(23,1,2,8)           175.0847         estimate D2E/DX2                !
 ! D3    D(23,1,2,26)          -62.9497         estimate D2E/DX2                !
 ! D4    D(24,1,2,3)           -61.7894         estimate D2E/DX2                !
 ! D5    D(24,1,2,8)            55.2116         estimate D2E/DX2                !
 ! D6    D(24,1,2,26)          177.1771         estimate D2E/DX2                !
 ! D7    D(25,1,2,3)           177.8109         estimate D2E/DX2                !
 ! D8    D(25,1,2,8)           -65.1882         estimate D2E/DX2                !
 ! D9    D(25,1,2,26)           56.7774         estimate D2E/DX2                !
 ! D10   D(1,2,3,4)              3.1128         estimate D2E/DX2                !
 ! D11   D(1,2,3,5)           -176.2509         estimate D2E/DX2                !
 ! D12   D(8,2,3,4)           -118.7277         estimate D2E/DX2                !
 ! D13   D(8,2,3,5)             61.9085         estimate D2E/DX2                !
 ! D14   D(26,2,3,4)           125.8137         estimate D2E/DX2                !
 ! D15   D(26,2,3,5)           -53.5501         estimate D2E/DX2                !
 ! D16   D(1,2,8,9)             82.2786         estimate D2E/DX2                !
 ! D17   D(3,2,8,9)           -155.6372         estimate D2E/DX2                !
 ! D18   D(26,2,8,9)           -40.8316         estimate D2E/DX2                !
 ! D19   D(2,3,5,6)           -176.9253         estimate D2E/DX2                !
 ! D20   D(4,3,5,6)              3.6898         estimate D2E/DX2                !
 ! D21   D(3,5,6,7)            177.0986         estimate D2E/DX2                !
 ! D22   D(3,5,6,27)            55.9211         estimate D2E/DX2                !
 ! D23   D(3,5,6,28)           -61.5905         estimate D2E/DX2                !
 ! D24   D(5,6,7,29)           -59.7746         estimate D2E/DX2                !
 ! D25   D(5,6,7,30)          -179.8042         estimate D2E/DX2                !
 ! D26   D(5,6,7,31)            60.3068         estimate D2E/DX2                !
 ! D27   D(27,6,7,29)           58.7243         estimate D2E/DX2                !
 ! D28   D(27,6,7,30)          -61.3053         estimate D2E/DX2                !
 ! D29   D(27,6,7,31)          178.8057         estimate D2E/DX2                !
 ! D30   D(28,6,7,29)         -178.5036         estimate D2E/DX2                !
 ! D31   D(28,6,7,30)           61.4667         estimate D2E/DX2                !
 ! D32   D(28,6,7,31)          -58.4222         estimate D2E/DX2                !
 ! D33   D(2,8,9,10)          -117.1205         estimate D2E/DX2                !
 ! D34   D(2,8,9,13)           113.5386         estimate D2E/DX2                !
 ! D35   D(8,9,10,11)          177.7473         estimate D2E/DX2                !
 ! D36   D(8,9,10,12)          -54.5136         estimate D2E/DX2                !
 ! D37   D(8,9,10,32)           62.9236         estimate D2E/DX2                !
 ! D38   D(13,9,10,11)         -58.8309         estimate D2E/DX2                !
 ! D39   D(13,9,10,12)          68.9083         estimate D2E/DX2                !
 ! D40   D(13,9,10,32)        -173.6545         estimate D2E/DX2                !
 ! D41   D(8,9,13,14)          -70.9999         estimate D2E/DX2                !
 ! D42   D(8,9,13,17)           57.3645         estimate D2E/DX2                !
 ! D43   D(8,9,13,39)          175.7292         estimate D2E/DX2                !
 ! D44   D(10,9,13,14)         166.6478         estimate D2E/DX2                !
 ! D45   D(10,9,13,17)         -64.9877         estimate D2E/DX2                !
 ! D46   D(10,9,13,39)          53.377          estimate D2E/DX2                !
 ! D47   D(9,10,11,33)          76.2493         estimate D2E/DX2                !
 ! D48   D(9,10,11,34)         -45.3831         estimate D2E/DX2                !
 ! D49   D(9,10,11,35)        -165.068          estimate D2E/DX2                !
 ! D50   D(12,10,11,33)        -53.7714         estimate D2E/DX2                !
 ! D51   D(12,10,11,34)       -175.4038         estimate D2E/DX2                !
 ! D52   D(12,10,11,35)         64.9113         estimate D2E/DX2                !
 ! D53   D(32,10,11,33)       -171.6638         estimate D2E/DX2                !
 ! D54   D(32,10,11,34)         66.7038         estimate D2E/DX2                !
 ! D55   D(32,10,11,35)        -52.9811         estimate D2E/DX2                !
 ! D56   D(9,10,12,36)         166.2209         estimate D2E/DX2                !
 ! D57   D(9,10,12,37)          46.9826         estimate D2E/DX2                !
 ! D58   D(9,10,12,38)         -73.9565         estimate D2E/DX2                !
 ! D59   D(11,10,12,36)        -67.2304         estimate D2E/DX2                !
 ! D60   D(11,10,12,37)        173.5313         estimate D2E/DX2                !
 ! D61   D(11,10,12,38)         52.5922         estimate D2E/DX2                !
 ! D62   D(32,10,12,36)         50.9113         estimate D2E/DX2                !
 ! D63   D(32,10,12,37)        -68.327          estimate D2E/DX2                !
 ! D64   D(32,10,12,38)        170.7339         estimate D2E/DX2                !
 ! D65   D(9,13,14,15)         177.5404         estimate D2E/DX2                !
 ! D66   D(9,13,14,16)         -60.4965         estimate D2E/DX2                !
 ! D67   D(9,13,14,40)          59.3864         estimate D2E/DX2                !
 ! D68   D(17,13,14,15)         47.1567         estimate D2E/DX2                !
 ! D69   D(17,13,14,16)        169.1198         estimate D2E/DX2                !
 ! D70   D(17,13,14,40)        -70.9972         estimate D2E/DX2                !
 ! D71   D(39,13,14,15)        -70.5045         estimate D2E/DX2                !
 ! D72   D(39,13,14,16)         51.4586         estimate D2E/DX2                !
 ! D73   D(39,13,14,40)        171.3415         estimate D2E/DX2                !
 ! D74   D(9,13,17,18)         117.5636         estimate D2E/DX2                !
 ! D75   D(9,13,17,22)         -64.6023         estimate D2E/DX2                !
 ! D76   D(14,13,17,18)       -115.3084         estimate D2E/DX2                !
 ! D77   D(14,13,17,22)         62.5257         estimate D2E/DX2                !
 ! D78   D(39,13,17,18)          1.3025         estimate D2E/DX2                !
 ! D79   D(39,13,17,22)        179.1365         estimate D2E/DX2                !
 ! D80   D(13,14,15,41)         55.7373         estimate D2E/DX2                !
 ! D81   D(13,14,15,42)        -64.7761         estimate D2E/DX2                !
 ! D82   D(13,14,15,43)        174.8299         estimate D2E/DX2                !
 ! D83   D(16,14,15,41)        -66.7293         estimate D2E/DX2                !
 ! D84   D(16,14,15,42)        172.7573         estimate D2E/DX2                !
 ! D85   D(16,14,15,43)         52.3633         estimate D2E/DX2                !
 ! D86   D(40,14,15,41)        173.806          estimate D2E/DX2                !
 ! D87   D(40,14,15,42)         53.2926         estimate D2E/DX2                !
 ! D88   D(40,14,15,43)        -67.1014         estimate D2E/DX2                !
 ! D89   D(13,14,16,44)        -70.6009         estimate D2E/DX2                !
 ! D90   D(13,14,16,45)        170.3196         estimate D2E/DX2                !
 ! D91   D(13,14,16,46)         48.8674         estimate D2E/DX2                !
 ! D92   D(15,14,16,44)         52.2694         estimate D2E/DX2                !
 ! D93   D(15,14,16,45)        -66.8101         estimate D2E/DX2                !
 ! D94   D(15,14,16,46)        171.7377         estimate D2E/DX2                !
 ! D95   D(40,14,16,44)        170.6572         estimate D2E/DX2                !
 ! D96   D(40,14,16,45)         51.5777         estimate D2E/DX2                !
 ! D97   D(40,14,16,46)        -69.8745         estimate D2E/DX2                !
 ! D98   D(13,17,18,19)        178.8456         estimate D2E/DX2                !
 ! D99   D(13,17,18,47)         -1.2736         estimate D2E/DX2                !
 ! D100  D(22,17,18,19)          0.9471         estimate D2E/DX2                !
 ! D101  D(22,17,18,47)       -179.1721         estimate D2E/DX2                !
 ! D102  D(13,17,22,21)       -179.0253         estimate D2E/DX2                !
 ! D103  D(13,17,22,51)          1.6961         estimate D2E/DX2                !
 ! D104  D(18,17,22,21)         -1.172          estimate D2E/DX2                !
 ! D105  D(18,17,22,51)        179.5493         estimate D2E/DX2                !
 ! D106  D(17,18,19,20)         -0.1126         estimate D2E/DX2                !
 ! D107  D(17,18,19,48)        179.8606         estimate D2E/DX2                !
 ! D108  D(47,18,19,20)       -179.9934         estimate D2E/DX2                !
 ! D109  D(47,18,19,48)         -0.0202         estimate D2E/DX2                !
 ! D110  D(18,19,20,21)         -0.5062         estimate D2E/DX2                !
 ! D111  D(18,19,20,49)        179.7469         estimate D2E/DX2                !
 ! D112  D(48,19,20,21)        179.5206         estimate D2E/DX2                !
 ! D113  D(48,19,20,49)         -0.2263         estimate D2E/DX2                !
 ! D114  D(19,20,21,22)          0.2782         estimate D2E/DX2                !
 ! D115  D(19,20,21,50)       -179.8455         estimate D2E/DX2                !
 ! D116  D(49,20,21,22)       -179.9751         estimate D2E/DX2                !
 ! D117  D(49,20,21,50)         -0.0988         estimate D2E/DX2                !
 ! D118  D(20,21,22,17)          0.5722         estimate D2E/DX2                !
 ! D119  D(20,21,22,51)        179.8397         estimate D2E/DX2                !
 ! D120  D(50,21,22,17)       -179.3041         estimate D2E/DX2                !
 ! D121  D(50,21,22,51)         -0.0367         estimate D2E/DX2                !
 --------------------------------------------------------------------------------
 Trust Radius=3.00D-01 FncErr=1.00D-07 GrdErr=1.00D-06 EigMax=2.50D+02 EigMin=1.00D-04
 Number of steps in this run=    274 maximum allowed number of steps=    306.
 GradGradGradGradGradGradGradGradGradGradGradGradGradGradGradGradGradGrad

 Leave Link  103 at Wed Jan  8 05:43:40 2025, MaxMem=  4026531840 cpu:               0.4 elap:               2.3
 (Enter /usr/local/intel/g16/l202.exe)
 Stoichiometry    C18H29NO3
 Framework group  C1[X(C18H29NO3)]
 Deg. of freedom   147
 Full point group                 C1      NOp   1
 Largest Abelian subgroup         C1      NOp   1
 Largest concise Abelian subgroup C1      NOp   1
                         Standard orientation:                         
 ---------------------------------------------------------------------
 Center     Atomic      Atomic             Coordinates (Angstroms)
 Number     Number       Type             X           Y           Z
 ---------------------------------------------------------------------
      1          6           0        2.360042   -2.781326   -0.655916
      2          6           0        1.957954   -1.418828   -0.107726
      3          6           0        2.903517   -0.302948   -0.551699
      4          8           0        3.864677   -0.426599   -1.316105
      5          8           0        2.555233    0.884217    0.027829
      6          6           0        3.315397    2.090982   -0.338328
      7          6           0        2.662150    3.251075    0.397424
      8          8           0        0.651490   -0.988918   -0.596364
      9          7           0       -0.433922   -1.584897    0.182652
     10          6           0       -1.218029   -2.441098   -0.756898
     11          6           0       -2.346427   -3.145282    0.012238
     12          6           0       -1.738626   -1.745575   -2.031419
     13          6           0       -1.141986   -0.504439    0.930362
     14          6           0       -0.231955    0.024409    2.075100
     15          6           0       -0.907104    1.185064    2.832010
     16          6           0        0.107331   -1.109363    3.062157
     17          6           0       -1.718442    0.626104    0.082577
     18          6           0       -3.105737    0.846593    0.070524
     19          6           0       -3.666447    1.891919   -0.678718
     20          6           0       -2.835984    2.736871   -1.428970
     21          6           0       -1.446413    2.531788   -1.412398
     22          6           0       -0.890164    1.490016   -0.659244
     23          1           0        3.376759   -3.038800   -0.344088
     24          1           0        2.327173   -2.776761   -1.748237
     25          1           0        1.671631   -3.540305   -0.273447
     26          1           0        1.939912   -1.429058    0.986398
     27          1           0        3.272863    2.208095   -1.425436
     28          1           0        4.359956    1.945351   -0.047070
     29          1           0        1.613530    3.353569    0.104293
     30          1           0        3.185157    4.183235    0.160502
     31          1           0        2.702923    3.093128    1.478623
     32          1           0       -0.498280   -3.205426   -1.071090
     33          1           0       -3.174356   -2.460769    0.228986
     34          1           0       -1.975163   -3.563594    0.953703
     35          1           0       -2.746840   -3.961213   -0.598041
     36          1           0       -2.073695   -2.508488   -2.744195
     37          1           0       -0.942763   -1.159016   -2.496985
     38          1           0       -2.580234   -1.080450   -1.820743
     39          1           0       -1.978657   -1.020533    1.418913
     40          1           0        0.690194    0.407754    1.620955
     41          1           0       -1.891311    0.881038    3.213547
     42          1           0       -1.049913    2.061805    2.193872
     43          1           0       -0.291402    1.480859    3.689208
     44          1           0       -0.783024   -1.386239    3.642775
     45          1           0        0.880740   -0.789054    3.769887
     46          1           0        0.453742   -2.004913    2.538157
     47          1           0       -3.755975    0.195164    0.649928
     48          1           0       -4.741014    2.044815   -0.677038
     49          1           0       -3.263477    3.544859   -2.014030
     50          1           0       -0.798042    3.184461   -1.989395
     51          1           0        0.181358    1.329383   -0.647846
 ---------------------------------------------------------------------
 Rotational constants (GHZ):           0.3182152           0.2430061           0.1949530
 Leave Link  202 at Wed Jan  8 05:43:41 2025, MaxMem=  4026531840 cpu:               0.0 elap:               0.1
 (Enter /usr/local/intel/g16/l301.exe)
 Standard basis: def2TZVP (5D, 7F)
 Ernie: Thresh=  0.10000D-02 Tol=  0.10000D-05 Strict=F.
 There are   966 symmetry adapted cartesian basis functions of A   symmetry.
 There are   856 symmetry adapted basis functions of A   symmetry.
   856 basis functions,  1354 primitive gaussians,   966 cartesian basis functions
    84 alpha electrons       84 beta electrons
       nuclear repulsion energy      2023.2880052506 Hartrees.
 IExCor= 4336 DFT=T Ex+Corr=M062X ExCW=0 ScaHFX=  0.540000
 ScaDFX=  1.000000  1.000000  1.000000  1.000000 ScalE2=  1.000000  1.000000
 IRadAn=      5 IRanWt=     -1 IRanGd=            0 ICorTp=0 IEmpDi=  4
 NAtoms=   51 NActive=   51 NUniq=   51 SFac= 1.00D+00 NAtFMM=   60 NAOKFM=F Big=F
 Integral buffers will be    131072 words long.
 Raffenetti 2 integral format.
 Two-electron integral symmetry is turned on.
 Leave Link  301 at Wed Jan  8 05:43:42 2025, MaxMem=  4026531840 cpu:               1.1 elap:               1.3
 (Enter /usr/local/intel/g16/l302.exe)
 NPDir=0 NMtPBC=     1 NCelOv=     1 NCel=       1 NClECP=     1 NCelD=      1
         NCelK=      1 NCelE2=     1 NClLst=     1 CellRange=     0.0.
 One-electron integrals computed using PRISM.
 One-electron integral symmetry used in STVInt
   1 Symmetry operations used in ECPInt.
 ECPInt:  NShTT=   64261 NPrTT=  189376 LenC2=   57941 LenP2D=  121594.
 LDataN:  DoStor=T MaxTD1= 6 Len=  172
 NBasis=   856 RedAO= T EigKep=  6.16D-06  NBF=   856
 NBsUse=   856 1.00D-06 EigRej= -1.00D+00 NBFU=   856
 Precomputing XC quadrature grid using
 IXCGrd= 4 IRadAn=           5 IRanWt=          -1 IRanGd=           0 AccXCQ= 0.00D+00.
 Generated NRdTot=       0 NPtTot=           0 NUsed=           0 NTot=          32
 NSgBfM=   958   958   958   958   958 MxSgAt=    51 MxSgA2=    51.
 Leave Link  302 at Wed Jan  8 05:43:48 2025, MaxMem=  4026531840 cpu:              51.3 elap:               4.9
 (Enter /usr/local/intel/g16/l303.exe)
 DipDrv:  MaxL=1.
 Leave Link  303 at Wed Jan  8 05:43:51 2025, MaxMem=  4026531840 cpu:               5.6 elap:               2.4
 (Enter /usr/local/intel/g16/l401.exe)
 ExpMin= 9.52D-02 ExpMax= 2.70D+04 ExpMxC= 9.22D+02 IAcc=3 IRadAn=         5 AccDes= 0.00D+00
 Harris functional with IExCor= 1009 and IRadAn=       5 diagonalized for initial guess.
 HarFok:  IExCor= 1009 AccDes= 0.00D+00 IRadAn=         5 IDoV= 1 UseB2=F ITyADJ=14
 ICtDFT=  3500011 ScaDFX=  1.000000  1.000000  1.000000  1.000000
 FoFCou: FMM=F IPFlag=           0 FMFlag=      100000 FMFlg1=           0
         NFxFlg=           0 DoJE=T BraDBF=F KetDBF=T FulRan=T
         wScrn=  0.000000 ICntrl=       500 IOpCl=  0 I1Cent=   200000004 NGrid=           0
         NMat0=    1 NMatS0=      1 NMatT0=    0 NMatD0=    1 NMtDS0=    0 NMtDT0=    0
 Petite list used in FoFCou.
 Harris En= -983.338627926855    
 JPrj=0 DoOrth=F DoCkMO=F.
 Leave Link  401 at Wed Jan  8 05:44:04 2025, MaxMem=  4026531840 cpu:             158.8 elap:              10.1
 (Enter /usr/local/intel/g16/l502.exe)
 Integral symmetry usage will be decided dynamically.
 Closed shell SCF:
 Using DIIS extrapolation, IDIIS=  1040.
 NGot=  4026531840 LenX=  4024636278 LenY=  4023702156
 Requested convergence on RMS density matrix=1.00D-08 within 128 cycles.
 Requested convergence on MAX density matrix=1.00D-06.
 Requested convergence on             energy=1.00D-06.
 No special actions if energy rises.
 Fock matrices will be formed incrementally for  20 cycles.
 Integral accuracy reduced to 1.0D-05 until final iterations.

 Cycle   1  Pass 0  IDiag  1:
 FoFJK:  IHMeth= 1 ICntrl=       0 DoSepK=F KAlg= 0 I1Cent=           0 FoldK=F
 IRaf= 830000000 NMat=       1 IRICut=       1 DoRegI=T DoRafI=F ISym2E= 0 IDoP0=0 IntGTp=1.
 FoFCou: FMM=F IPFlag=           0 FMFlag=      100000 FMFlg1=           0
         NFxFlg=           0 DoJE=F BraDBF=F KetDBF=F FulRan=T
         wScrn=  0.000000 ICntrl=         0 IOpCl=  0 I1Cent=           0 NGrid=           0
         NMat0=    1 NMatS0=      1 NMatT0=    0 NMatD0=    1 NMtDS0=    0 NMtDT0=    0
 Symmetry not used in FoFCou.
 E= -982.992531961615    
 DIIS: error= 1.65D-02 at cycle   1 NSaved=   1.
 NSaved= 1 IEnMin= 1 EnMin= -982.992531961615     IErMin= 1 ErrMin= 1.65D-02
 ErrMax= 1.65D-02  0.00D+00 EMaxC= 1.00D-01 BMatC= 8.38D-01 BMatP= 8.38D-01
 IDIUse=3 WtCom= 8.35D-01 WtEn= 1.65D-01
 Coeff-Com:  0.100D+01
 Coeff-En:   0.100D+01
 Coeff:      0.100D+01
 Gap=     0.400 Goal=   None    Shift=    0.000
 GapD=    0.400 DampG=1.000 DampE=0.500 DampFc=0.5000 IDamp=-1.
 Damping current iteration by 5.00D-01
 RMSDP=2.45D-03 MaxDP=1.87D-01              OVMax= 1.87D-01

 Cycle   2  Pass 0  IDiag  1:
 RMSU=  1.22D-03    CP:  9.84D-01
 E= -983.341673038352     Delta-E=       -0.349141076736 Rises=F Damp=T
 DIIS: error= 4.19D-03 at cycle   2 NSaved=   2.
 NSaved= 2 IEnMin= 2 EnMin= -983.341673038352     IErMin= 2 ErrMin= 4.19D-03
 ErrMax= 4.19D-03  0.00D+00 EMaxC= 1.00D-01 BMatC= 6.72D-02 BMatP= 8.38D-01
 IDIUse=3 WtCom= 9.58D-01 WtEn= 4.19D-02
 Coeff-Com: -0.718D-01 0.107D+01
 Coeff-En:   0.000D+00 0.100D+01
 Coeff:     -0.688D-01 0.107D+01
 Gap=     0.323 Goal=   None    Shift=    0.000
 RMSDP=1.16D-03 MaxDP=1.50D-01 DE=-3.49D-01 OVMax= 1.12D-01

 Cycle   3  Pass 0  IDiag  1:
 RMSU=  9.68D-04    CP:  9.83D-01  1.52D+00
 E= -983.665420408174     Delta-E=       -0.323747369822 Rises=F Damp=F
 DIIS: error= 5.74D-03 at cycle   3 NSaved=   3.
 NSaved= 3 IEnMin= 3 EnMin= -983.665420408174     IErMin= 2 ErrMin= 4.19D-03
 ErrMax= 5.74D-03  0.00D+00 EMaxC= 1.00D-01 BMatC= 4.07D-02 BMatP= 6.72D-02
 IDIUse=3 WtCom= 9.43D-01 WtEn= 5.74D-02
 Coeff-Com: -0.944D-01 0.492D+00 0.603D+00
 Coeff-En:   0.000D+00 0.000D+00 0.100D+01
 Coeff:     -0.890D-01 0.463D+00 0.626D+00
 Gap=     0.306 Goal=   None    Shift=    0.000
 RMSDP=3.25D-04 MaxDP=3.05D-02 DE=-3.24D-01 OVMax= 6.45D-02

 Cycle   4  Pass 0  IDiag  1:
 RMSU=  2.96D-04    CP:  9.85D-01  1.62D+00  9.35D-01
 E= -983.687416837029     Delta-E=       -0.021996428854 Rises=F Damp=F
 DIIS: error= 2.68D-03 at cycle   4 NSaved=   4.
 NSaved= 4 IEnMin= 4 EnMin= -983.687416837029     IErMin= 4 ErrMin= 2.68D-03
 ErrMax= 2.68D-03  0.00D+00 EMaxC= 1.00D-01 BMatC= 1.04D-02 BMatP= 4.07D-02
 IDIUse=3 WtCom= 9.73D-01 WtEn= 2.68D-02
 Coeff-Com: -0.367D-01 0.105D+00 0.363D+00 0.568D+00
 Coeff-En:   0.000D+00 0.000D+00 0.212D+00 0.788D+00
 Coeff:     -0.357D-01 0.102D+00 0.359D+00 0.574D+00
 Gap=     0.301 Goal=   None    Shift=    0.000
 RMSDP=1.31D-04 MaxDP=1.91D-02 DE=-2.20D-02 OVMax= 1.70D-02

 Cycle   5  Pass 0  IDiag  1:
 RMSU=  1.01D-04    CP:  9.83D-01  1.60D+00  9.63D-01  7.46D-01
 E= -983.694828142940     Delta-E=       -0.007411305911 Rises=F Damp=F
 DIIS: error= 5.08D-04 at cycle   5 NSaved=   5.
 NSaved= 5 IEnMin= 5 EnMin= -983.694828142940     IErMin= 5 ErrMin= 5.08D-04
 ErrMax= 5.08D-04  0.00D+00 EMaxC= 1.00D-01 BMatC= 2.90D-04 BMatP= 1.04D-02
 IDIUse=3 WtCom= 9.95D-01 WtEn= 5.08D-03
 Coeff-Com: -0.104D-01 0.214D-01 0.124D+00 0.251D+00 0.614D+00
 Coeff-En:   0.000D+00 0.000D+00 0.000D+00 0.000D+00 0.100D+01
 Coeff:     -0.104D-01 0.213D-01 0.124D+00 0.249D+00 0.616D+00
 Gap=     0.300 Goal=   None    Shift=    0.000
 RMSDP=5.26D-05 MaxDP=5.17D-03 DE=-7.41D-03 OVMax= 3.42D-03

 Cycle   6  Pass 0  IDiag  1:
 RMSU=  4.71D-05    CP:  9.82D-01  1.59D+00  9.62D-01  7.34D-01  8.75D-01
 E= -983.695043372186     Delta-E=       -0.000215229246 Rises=F Damp=F
 DIIS: error= 1.38D-04 at cycle   6 NSaved=   6.
 NSaved= 6 IEnMin= 6 EnMin= -983.695043372186     IErMin= 6 ErrMin= 1.38D-04
 ErrMax= 1.38D-04  0.00D+00 EMaxC= 1.00D-01 BMatC= 3.51D-05 BMatP= 2.90D-04
 IDIUse=3 WtCom= 9.99D-01 WtEn= 1.38D-03
 Coeff-Com: -0.113D-02-0.324D-03 0.224D-01 0.604D-01 0.300D+00 0.619D+00
 Coeff-En:   0.000D+00 0.000D+00 0.000D+00 0.000D+00 0.000D+00 0.100D+01
 Coeff:     -0.113D-02-0.323D-03 0.224D-01 0.603D-01 0.300D+00 0.619D+00
 Gap=     0.301 Goal=   None    Shift=    0.000
 RMSDP=3.31D-05 MaxDP=1.77D-03 DE=-2.15D-04 OVMax= 1.07D-03

 Cycle   7  Pass 0  IDiag  1:
 RMSU=  2.45D-05    CP:  9.82D-01  1.58D+00  9.66D-01  7.39D-01  9.93D-01
                    CP:  1.37D+00
 E= -983.695082143110     Delta-E=       -0.000038770924 Rises=F Damp=F
 DIIS: error= 3.10D-05 at cycle   7 NSaved=   7.
 NSaved= 7 IEnMin= 7 EnMin= -983.695082143110     IErMin= 7 ErrMin= 3.10D-05
 ErrMax= 3.10D-05  0.00D+00 EMaxC= 1.00D-01 BMatC= 2.01D-06 BMatP= 3.51D-05
 IDIUse=1 WtCom= 1.00D+00 WtEn= 0.00D+00
 Coeff-Com:  0.892D-03-0.270D-02-0.584D-02-0.851D-02 0.397D-01 0.197D+00
 Coeff-Com:  0.780D+00
 Coeff:      0.892D-03-0.270D-02-0.584D-02-0.851D-02 0.397D-01 0.197D+00
 Coeff:      0.780D+00
 Gap=     0.301 Goal=   None    Shift=    0.000
 RMSDP=4.78D-05 MaxDP=4.31D-03 DE=-3.88D-05 OVMax= 4.64D-04

 Cycle   8  Pass 0  IDiag  1:
 RMSU=  2.44D-05    CP:  9.82D-01  1.59D+00  9.75D-01  7.50D-01  1.18D+00
                    CP:  1.60D+00  2.36D+00
 E= -983.695096624578     Delta-E=       -0.000014481468 Rises=F Damp=F
 DIIS: error= 3.13D-05 at cycle   8 NSaved=   8.
 NSaved= 8 IEnMin= 8 EnMin= -983.695096624578     IErMin= 7 ErrMin= 3.10D-05
 ErrMax= 3.13D-05  0.00D+00 EMaxC= 1.00D-01 BMatC= 6.29D-07 BMatP= 2.01D-06
 IDIUse=1 WtCom= 1.00D+00 WtEn= 0.00D+00
 Coeff-Com:  0.577D-03-0.131D-02-0.517D-02-0.118D-01-0.148D-01 0.187D-01
 Coeff-Com:  0.378D+00 0.636D+00
 Coeff:      0.577D-03-0.131D-02-0.517D-02-0.118D-01-0.148D-01 0.187D-01
 Coeff:      0.378D+00 0.636D+00
 Gap=     0.301 Goal=   None    Shift=    0.000
 RMSDP=5.85D-05 MaxDP=5.70D-03 DE=-1.45D-05 OVMax= 1.83D-04

 Cycle   9  Pass 0  IDiag  1:
 RMSU=  2.23D-05    CP:  9.82D-01  1.60D+00  9.88D-01  7.69D-01  1.38D+00
                    CP:  1.56D+00  3.00D+00  2.40D+00
 E= -983.695100282188     Delta-E=       -0.000003657610 Rises=F Damp=F
 DIIS: error= 3.69D-05 at cycle   9 NSaved=   9.
 NSaved= 9 IEnMin= 9 EnMin= -983.695100282188     IErMin= 7 ErrMin= 3.10D-05
 ErrMax= 3.69D-05  0.00D+00 EMaxC= 1.00D-01 BMatC= 2.78D-07 BMatP= 6.29D-07
 IDIUse=1 WtCom= 1.00D+00 WtEn= 0.00D+00
 Coeff-Com:  0.347D-03-0.788D-03-0.306D-02-0.731D-02-0.906D-02 0.868D-02
 Coeff-Com:  0.217D+00 0.395D+00 0.400D+00
 Coeff:      0.347D-03-0.788D-03-0.306D-02-0.731D-02-0.906D-02 0.868D-02
 Coeff:      0.217D+00 0.395D+00 0.400D+00
 Gap=     0.301 Goal=   None    Shift=    0.000
 RMSDP=3.87D-05 MaxDP=2.82D-03 DE=-3.66D-06 OVMax= 4.93D-05

 Cycle  10  Pass 0  IDiag  1:
 RMSU=  1.14D-05    CP:  9.83D-01  1.61D+00  9.97D-01  7.78D-01  1.46D+00
                    CP:  1.53D+00  3.00D+00  3.00D+00  2.09D+00
 E= -983.695098985143     Delta-E=        0.000001297045 Rises=F Damp=F
 DIIS: error= 4.88D-05 at cycle  10 NSaved=  10.
 NSaved=10 IEnMin= 9 EnMin= -983.695100282188     IErMin= 7 ErrMin= 3.10D-05
 ErrMax= 4.88D-05  0.00D+00 EMaxC= 1.00D-01 BMatC= 3.73D-07 BMatP= 2.78D-07
 IDIUse=1 WtCom= 1.00D+00 WtEn= 0.00D+00
 Coeff-Com:  0.333D-03-0.710D-03-0.305D-02-0.777D-02-0.128D-01-0.328D-02
 Coeff-Com:  0.195D+00 0.460D+00 0.953D+00-0.580D+00
 Coeff:      0.333D-03-0.710D-03-0.305D-02-0.777D-02-0.128D-01-0.328D-02
 Coeff:      0.195D+00 0.460D+00 0.953D+00-0.580D+00
 Gap=     0.301 Goal=   None    Shift=    0.000
 RMSDP=3.93D-05 MaxDP=3.30D-03 DE= 1.30D-06 OVMax= 3.05D-05

 Cycle  11  Pass 0  IDiag  1:
 RMSU=  1.30D-05    CP:  9.82D-01  1.60D+00  9.87D-01  7.71D-01  1.44D+00
                    CP:  1.52D+00  3.00D+00  2.86D+00  1.11D+00 -9.11D-01
 E= -983.695096623529     Delta-E=        0.000002361614 Rises=F Damp=F
 DIIS: error= 2.85D-05 at cycle  11 NSaved=  11.
 NSaved=11 IEnMin= 9 EnMin= -983.695100282188     IErMin=11 ErrMin= 2.85D-05
 ErrMax= 2.85D-05  0.00D+00 EMaxC= 1.00D-01 BMatC= 2.12D-07 BMatP= 2.78D-07
 IDIUse=1 WtCom= 1.00D+00 WtEn= 0.00D+00
 Coeff-Com:  0.159D-03-0.348D-03-0.135D-02-0.371D-02-0.531D-02-0.191D-02
 Coeff-Com:  0.845D-01 0.214D+00 0.741D+00-0.100D+01 0.973D+00
 Coeff:      0.159D-03-0.348D-03-0.135D-02-0.371D-02-0.531D-02-0.191D-02
 Coeff:      0.845D-01 0.214D+00 0.741D+00-0.100D+01 0.973D+00
 Gap=     0.301 Goal=   None    Shift=    0.000
 RMSDP=3.74D-05 MaxDP=5.80D-03 DE= 2.36D-06 OVMax= 3.11D-05

 Problem detected with inexpensive integrals.
 Switching to full accuracy and repeating last cycle.
 Cycle  12  Pass 1  IDiag  1:
 E= -983.695047041688     Delta-E=        0.000049581841 Rises=F Damp=F
 DIIS: error= 6.93D-04 at cycle   1 NSaved=   1.
 NSaved= 1 IEnMin= 1 EnMin= -983.695047041688     IErMin= 1 ErrMin= 6.93D-04
 ErrMax= 6.93D-04  0.00D+00 EMaxC= 1.00D-01 BMatC= 8.65D-05 BMatP= 8.65D-05
 IDIUse=3 WtCom= 9.93D-01 WtEn= 6.93D-03
 Coeff-Com:  0.100D+01
 Coeff-En:   0.100D+01
 Coeff:      0.100D+01
 Gap=     0.301 Goal=   None    Shift=    0.000
 RMSDP=1.64D-03 MaxDP=1.95D-01 DE= 4.96D-05 OVMax= 9.82D-04

 Cycle  13  Pass 1  IDiag  1:
 RMSU=  1.55D-03    CP:  9.05D-01
 E= -983.695098598056     Delta-E=       -0.000051556368 Rises=F Damp=F
 DIIS: error= 1.95D-05 at cycle   2 NSaved=   2.
 NSaved= 2 IEnMin= 2 EnMin= -983.695098598056     IErMin= 2 ErrMin= 1.95D-05
 ErrMax= 1.95D-05  0.00D+00 EMaxC= 1.00D-01 BMatC= 6.39D-08 BMatP= 8.65D-05
 IDIUse=1 WtCom= 1.00D+00 WtEn= 0.00D+00
 Coeff-Com: -0.156D-01 0.102D+01
 Coeff:     -0.156D-01 0.102D+01
 Gap=     0.301 Goal=   None    Shift=    0.000
 RMSDP=3.61D-05 MaxDP=2.77D-03 DE=-5.16D-05 OVMax= 5.11D-05

 Cycle  14  Pass 1  IDiag  1:
 RMSU=  2.42D-05    CP:  9.04D-01  1.02D+00
 E= -983.695098644601     Delta-E=       -0.000000046546 Rises=F Damp=F
 DIIS: error= 4.92D-06 at cycle   3 NSaved=   3.
 NSaved= 3 IEnMin= 3 EnMin= -983.695098644601     IErMin= 3 ErrMin= 4.92D-06
 ErrMax= 4.92D-06  0.00D+00 EMaxC= 1.00D-01 BMatC= 4.15D-08 BMatP= 6.39D-08
 IDIUse=1 WtCom= 1.00D+00 WtEn= 0.00D+00
 Coeff-Com: -0.809D-02 0.500D+00 0.508D+00
 Coeff:     -0.809D-02 0.500D+00 0.508D+00
 Gap=     0.301 Goal=   None    Shift=    0.000
 RMSDP=5.99D-07 MaxDP=4.00D-05 DE=-4.65D-08 OVMax= 3.75D-05

 Cycle  15  Pass 1  IDiag  1:
 RMSU=  3.48D-07    CP:  9.04D-01  1.02D+00  1.02D+00
 E= -983.695098674832     Delta-E=       -0.000000030230 Rises=F Damp=F
 DIIS: error= 1.23D-06 at cycle   4 NSaved=   4.
 NSaved= 4 IEnMin= 4 EnMin= -983.695098674832     IErMin= 4 ErrMin= 1.23D-06
 ErrMax= 1.23D-06  0.00D+00 EMaxC= 1.00D-01 BMatC= 3.31D-09 BMatP= 4.15D-08
 IDIUse=1 WtCom= 1.00D+00 WtEn= 0.00D+00
 Coeff-Com: -0.579D-03 0.266D-01 0.213D+00 0.761D+00
 Coeff:     -0.579D-03 0.266D-01 0.213D+00 0.761D+00
 Gap=     0.301 Goal=   None    Shift=    0.000
 RMSDP=5.13D-07 MaxDP=3.62D-05 DE=-3.02D-08 OVMax= 1.29D-05

 Cycle  16  Pass 1  IDiag  1:
 RMSU=  2.09D-07    CP:  9.04D-01  1.02D+00  1.03D+00  1.11D+00
 E= -983.695098677031     Delta-E=       -0.000000002200 Rises=F Damp=F
 DIIS: error= 5.93D-07 at cycle   5 NSaved=   5.
 NSaved= 5 IEnMin= 5 EnMin= -983.695098677031     IErMin= 5 ErrMin= 5.93D-07
 ErrMax= 5.93D-07  0.00D+00 EMaxC= 1.00D-01 BMatC= 7.62D-10 BMatP= 3.31D-09
 IDIUse=1 WtCom= 1.00D+00 WtEn= 0.00D+00
 Coeff-Com:  0.326D-03-0.256D-01 0.776D-01 0.440D+00 0.507D+00
 Coeff:      0.326D-03-0.256D-01 0.776D-01 0.440D+00 0.507D+00
 Gap=     0.301 Goal=   None    Shift=    0.000
 RMSDP=7.71D-08 MaxDP=4.91D-06 DE=-2.20D-09 OVMax= 3.58D-06

 Cycle  17  Pass 1  IDiag  1:
 RMSU=  3.24D-08    CP:  9.04D-01  1.02D+00  1.03D+00  1.18D+00  1.08D+00
 E= -983.695098677619     Delta-E=       -0.000000000588 Rises=F Damp=F
 DIIS: error= 1.61D-07 at cycle   6 NSaved=   6.
 NSaved= 6 IEnMin= 6 EnMin= -983.695098677619     IErMin= 6 ErrMin= 1.61D-07
 ErrMax= 1.61D-07  0.00D+00 EMaxC= 1.00D-01 BMatC= 1.93D-11 BMatP= 7.62D-10
 IDIUse=1 WtCom= 1.00D+00 WtEn= 0.00D+00
 Coeff-Com:  0.163D-03-0.114D-01 0.132D-01 0.120D+00 0.167D+00 0.712D+00
 Coeff:      0.163D-03-0.114D-01 0.132D-01 0.120D+00 0.167D+00 0.712D+00
 Gap=     0.301 Goal=   None    Shift=    0.000
 RMSDP=1.29D-08 MaxDP=1.29D-06 DE=-5.88D-10 OVMax= 1.59D-06

 Cycle  18  Pass 1  IDiag  1:
 RMSU=  9.72D-09    CP:  9.04D-01  1.02D+00  1.03D+00  1.19D+00  1.11D+00
                    CP:  1.11D+00
 E= -983.695098677607     Delta-E=        0.000000000011 Rises=F Damp=F
 DIIS: error= 6.52D-08 at cycle   7 NSaved=   7.
 NSaved= 7 IEnMin= 6 EnMin= -983.695098677619     IErMin= 7 ErrMin= 6.52D-08
 ErrMax= 6.52D-08  0.00D+00 EMaxC= 1.00D-01 BMatC= 7.63D-12 BMatP= 1.93D-11
 IDIUse=1 WtCom= 1.00D+00 WtEn= 0.00D+00
 Coeff-Com: -0.288D-05 0.878D-03-0.144D-01-0.517D-01-0.578D-01 0.376D+00
 Coeff-Com:  0.747D+00
 Coeff:     -0.288D-05 0.878D-03-0.144D-01-0.517D-01-0.578D-01 0.376D+00
 Coeff:      0.747D+00
 Gap=     0.301 Goal=   None    Shift=    0.000
 RMSDP=8.45D-09 MaxDP=4.43D-07 DE= 1.14D-11 OVMax= 7.02D-07

 SCF Done:  E(RM062X) =  -983.695098678     A.U. after   18 cycles
            NFock= 18  Conv=0.85D-08     -V/T= 2.0060
 KE= 9.778429093626D+02 PE=-6.335940311768D+03 EE= 2.351114298477D+03
 Leave Link  502 at Wed Jan  8 06:00:04 2025, MaxMem=  4026531840 cpu:           19125.7 elap:             958.2
 (Enter /usr/local/intel/g16/l601.exe)
 Copying SCF densities to generalized density rwf, IOpCl= 0 IROHF=0.

 **********************************************************************

            Population analysis using the SCF Density.

 **********************************************************************

 Orbital symmetries:
       Occupied  (A) (A) (A) (A) (A) (A) (A) (A) (A) (A) (A) (A)
                 (A) (A) (A) (A) (A) (A) (A) (A) (A) (A) (A) (A)
                 (A) (A) (A) (A) (A) (A) (A) (A) (A) (A) (A) (A)
                 (A) (A) (A) (A) (A) (A) (A) (A) (A) (A) (A) (A)
                 (A) (A) (A) (A) (A) (A) (A) (A) (A) (A) (A) (A)
                 (A) (A) (A) (A) (A) (A) (A) (A) (A) (A) (A) (A)
                 (A) (A) (A) (A) (A) (A) (A) (A) (A) (A) (A) (A)
       Virtual   (A) (A) (A) (A) (A) (A) (A) (A) (A) (A) (A) (A)
                 (A) (A) (A) (A) (A) (A) (A) (A) (A) (A) (A) (A)
                 (A) (A) (A) (A) (A) (A) (A) (A) (A) (A) (A) (A)
                 (A) (A) (A) (A) (A) (A) (A) (A) (A) (A) (A) (A)
                 (A) (A) (A) (A) (A) (A) (A) (A) (A) (A) (A) (A)
                 (A) (A) (A) (A) (A) (A) (A) (A) (A) (A) (A) (A)
                 (A) (A) (A) (A) (A) (A) (A) (A) (A) (A) (A) (A)
                 (A) (A) (A) (A) (A) (A) (A) (A) (A) (A) (A) (A)
                 (A) (A) (A) (A) (A) (A) (A) (A) (A) (A) (A) (A)
                 (A) (A) (A) (A) (A) (A) (A) (A) (A) (A) (A) (A)
                 (A) (A) (A) (A) (A) (A) (A) (A) (A) (A) (A) (A)
                 (A) (A) (A) (A) (A) (A) (A) (A) (A) (A) (A) (A)
                 (A) (A) (A) (A) (A) (A) (A) (A) (A) (A) (A) (A)
                 (A) (A) (A) (A) (A) (A) (A) (A) (A) (A) (A) (A)
                 (A) (A) (A) (A) (A) (A) (A) (A) (A) (A) (A) (A)
                 (A) (A) (A) (A) (A) (A) (A) (A) (A) (A) (A) (A)
                 (A) (A) (A) (A) (A) (A) (A) (A) (A) (A) (A) (A)
                 (A) (A) (A) (A) (A) (A) (A) (A) (A) (A) (A) (A)
                 (A) (A) (A) (A) (A) (A) (A) (A) (A) (A) (A) (A)
                 (A) (A) (A) (A) (A) (A) (A) (A) (A) (A) (A) (A)
                 (A) (A) (A) (A) (A) (A) (A) (A) (A) (A) (A) (A)
                 (A) (A) (A) (A) (A) (A) (A) (A) (A) (A) (A) (A)
                 (A) (A) (A) (A) (A) (A) (A) (A) (A) (A) (A) (A)
                 (A) (A) (A) (A) (A) (A) (A) (A) (A) (A) (A) (A)
                 (A) (A) (A) (A) (A) (A) (A) (A) (A) (A) (A) (A)
                 (A) (A) (A) (A) (A) (A) (A) (A) (A) (A) (A) (A)
                 (A) (A) (A) (A) (A) (A) (A) (A) (A) (A) (A) (A)
                 (A) (A) (A) (A) (A) (A) (A) (A) (A) (A) (A) (A)
                 (A) (A) (A) (A) (A) (A) (A) (A) (A) (A) (A) (A)
                 (A) (A) (A) (A) (A) (A) (A) (A) (A) (A) (A) (A)
                 (A) (A) (A) (A) (A) (A) (A) (A) (A) (A) (A) (A)
                 (A) (A) (A) (A) (A) (A) (A) (A) (A) (A) (A) (A)
                 (A) (A) (A) (A) (A) (A) (A) (A) (A) (A) (A) (A)
                 (A) (A) (A) (A) (A) (A) (A) (A) (A) (A) (A) (A)
                 (A) (A) (A) (A) (A) (A) (A) (A) (A) (A) (A) (A)
                 (A) (A) (A) (A) (A) (A) (A) (A) (A) (A) (A) (A)
                 (A) (A) (A) (A) (A) (A) (A) (A) (A) (A) (A) (A)
                 (A) (A) (A) (A) (A) (A) (A) (A) (A) (A) (A) (A)
                 (A) (A) (A) (A) (A) (A) (A) (A) (A) (A) (A) (A)
                 (A) (A) (A) (A) (A) (A) (A) (A) (A) (A) (A) (A)
                 (A) (A) (A) (A) (A) (A) (A) (A) (A) (A) (A) (A)
                 (A) (A) (A) (A) (A) (A) (A) (A) (A) (A) (A) (A)
                 (A) (A) (A) (A) (A) (A) (A) (A) (A) (A) (A) (A)
                 (A) (A) (A) (A) (A) (A) (A) (A) (A) (A) (A) (A)
                 (A) (A) (A) (A) (A) (A) (A) (A) (A) (A) (A) (A)
                 (A) (A) (A) (A) (A) (A) (A) (A) (A) (A) (A) (A)
                 (A) (A) (A) (A) (A) (A) (A) (A) (A) (A) (A) (A)
                 (A) (A) (A) (A) (A) (A) (A) (A) (A) (A) (A) (A)
                 (A) (A) (A) (A) (A) (A) (A) (A) (A) (A) (A) (A)
                 (A) (A) (A) (A) (A) (A) (A) (A) (A) (A) (A) (A)
                 (A) (A) (A) (A) (A) (A) (A) (A) (A) (A) (A) (A)
                 (A) (A) (A) (A) (A) (A) (A) (A) (A) (A) (A) (A)
                 (A) (A) (A) (A) (A) (A) (A) (A) (A) (A) (A) (A)
                 (A) (A) (A) (A) (A) (A) (A) (A) (A) (A) (A) (A)
                 (A) (A) (A) (A) (A) (A) (A) (A) (A) (A) (A) (A)
                 (A) (A) (A) (A) (A) (A) (A) (A) (A) (A) (A) (A)
                 (A) (A) (A) (A) (A) (A) (A) (A) (A) (A) (A) (A)
                 (A) (A) (A) (A) (A) (A) (A) (A) (A) (A) (A) (A)
                 (A) (A) (A) (A) (A) (A) (A) (A) (A) (A) (A) (A)
                 (A) (A) (A) (A) (A) (A) (A) (A) (A) (A) (A) (A)
                 (A) (A) (A) (A) (A) (A) (A) (A) (A) (A) (A) (A)
                 (A) (A) (A) (A) (A) (A) (A) (A) (A) (A) (A) (A)
                 (A) (A) (A) (A) (A) (A) (A) (A) (A) (A) (A) (A)
                 (A) (A) (A) (A) (A) (A) (A) (A) (A) (A) (A) (A)
                 (A) (A) (A) (A)
 The electronic state is 1-A.
 Alpha  occ. eigenvalues --  -19.67458 -19.65862 -19.62498 -14.79306 -10.68107
 Alpha  occ. eigenvalues --  -10.60916 -10.60395 -10.57416 -10.57078 -10.54703
 Alpha  occ. eigenvalues --  -10.54383 -10.54287 -10.54218 -10.54201 -10.54007
 Alpha  occ. eigenvalues --  -10.53875 -10.53562 -10.53077 -10.53057 -10.51996
 Alpha  occ. eigenvalues --  -10.51995 -10.51392  -1.22205  -1.17795  -1.13193
 Alpha  occ. eigenvalues --   -0.98636  -0.95101  -0.90418  -0.88496  -0.86328
 Alpha  occ. eigenvalues --   -0.84749  -0.83662  -0.82826  -0.77724  -0.76861
 Alpha  occ. eigenvalues --   -0.76540  -0.74640  -0.70455  -0.68826  -0.67457
 Alpha  occ. eigenvalues --   -0.65730  -0.64683  -0.63612  -0.59794  -0.59267
 Alpha  occ. eigenvalues --   -0.57542  -0.56287  -0.55818  -0.54499  -0.53787
 Alpha  occ. eigenvalues --   -0.52862  -0.51291  -0.50621  -0.49973  -0.49966
 Alpha  occ. eigenvalues --   -0.49034  -0.48904  -0.48202  -0.47706  -0.47097
 Alpha  occ. eigenvalues --   -0.46132  -0.45681  -0.45516  -0.44535  -0.44425
 Alpha  occ. eigenvalues --   -0.44249  -0.43924  -0.43121  -0.42820  -0.42735
 Alpha  occ. eigenvalues --   -0.42464  -0.41161  -0.40583  -0.39790  -0.39720
 Alpha  occ. eigenvalues --   -0.38532  -0.38126  -0.37811  -0.37476  -0.35813
 Alpha  occ. eigenvalues --   -0.34680  -0.30481  -0.29939  -0.28543
 Alpha virt. eigenvalues --    0.01535   0.01921   0.02558   0.05249   0.06255
 Alpha virt. eigenvalues --    0.07229   0.07595   0.08815   0.09661   0.10078
 Alpha virt. eigenvalues --    0.10566   0.10672   0.11824   0.11890   0.12413
 Alpha virt. eigenvalues --    0.12949   0.13062   0.13207   0.13726   0.13890
 Alpha virt. eigenvalues --    0.14419   0.14962   0.15198   0.15664   0.15795
 Alpha virt. eigenvalues --    0.16000   0.16673   0.16807   0.17194   0.17345
 Alpha virt. eigenvalues --    0.17746   0.18318   0.18584   0.18869   0.19320
 Alpha virt. eigenvalues --    0.19660   0.19886   0.20192   0.20682   0.21116
 Alpha virt. eigenvalues --    0.21757   0.21990   0.23332   0.23528   0.24020
 Alpha virt. eigenvalues --    0.24328   0.24533   0.25008   0.25371   0.25678
 Alpha virt. eigenvalues --    0.26120   0.26869   0.27348   0.27820   0.27982
 Alpha virt. eigenvalues --    0.28454   0.28832   0.29729   0.30441   0.30878
 Alpha virt. eigenvalues --    0.31091   0.31235   0.31977   0.32384   0.32630
 Alpha virt. eigenvalues --    0.33434   0.33660   0.33908   0.34818   0.35018
 Alpha virt. eigenvalues --    0.35654   0.36053   0.36605   0.37084   0.38021
 Alpha virt. eigenvalues --    0.38417   0.39070   0.39460   0.39783   0.40490
 Alpha virt. eigenvalues --    0.40801   0.41107   0.41240   0.41849   0.41906
 Alpha virt. eigenvalues --    0.42275   0.42692   0.43514   0.43887   0.44148
 Alpha virt. eigenvalues --    0.44404   0.44876   0.45211   0.45648   0.45917
 Alpha virt. eigenvalues --    0.45973   0.46329   0.46502   0.46854   0.47184
 Alpha virt. eigenvalues --    0.47633   0.48134   0.48305   0.48671   0.48941
 Alpha virt. eigenvalues --    0.49248   0.49773   0.49902   0.50322   0.50566
 Alpha virt. eigenvalues --    0.50861   0.51116   0.51507   0.51723   0.52191
 Alpha virt. eigenvalues --    0.52442   0.52869   0.53247   0.53826   0.54031
 Alpha virt. eigenvalues --    0.54455   0.54767   0.55116   0.55399   0.55793
 Alpha virt. eigenvalues --    0.56097   0.56823   0.57158   0.57605   0.58125
 Alpha virt. eigenvalues --    0.58622   0.59036   0.61020   0.61407   0.62050
 Alpha virt. eigenvalues --    0.62257   0.62572   0.63246   0.63545   0.64345
 Alpha virt. eigenvalues --    0.64869   0.65472   0.66366   0.66902   0.67562
 Alpha virt. eigenvalues --    0.68096   0.69144   0.69507   0.70096   0.70612
 Alpha virt. eigenvalues --    0.71764   0.72613   0.73681   0.73883   0.75006
 Alpha virt. eigenvalues --    0.75194   0.75498   0.76749   0.77024   0.77721
 Alpha virt. eigenvalues --    0.78675   0.79480   0.79942   0.80701   0.81348
 Alpha virt. eigenvalues --    0.82069   0.82927   0.84167   0.84254   0.84677
 Alpha virt. eigenvalues --    0.85467   0.86026   0.86597   0.87340   0.87551
 Alpha virt. eigenvalues --    0.88499   0.89362   0.89939   0.90137   0.91180
 Alpha virt. eigenvalues --    0.91620   0.92582   0.93200   0.94190   0.94457
 Alpha virt. eigenvalues --    0.94605   0.95275   0.96001   0.96631   0.97216
 Alpha virt. eigenvalues --    0.97814   0.98645   0.98878   0.99587   1.00300
 Alpha virt. eigenvalues --    1.00454   1.01653   1.02259   1.03286   1.04178
 Alpha virt. eigenvalues --    1.04598   1.05340   1.06244   1.06556   1.08033
 Alpha virt. eigenvalues --    1.08244   1.08436   1.09505   1.10117   1.10304
 Alpha virt. eigenvalues --    1.10904   1.11454   1.12615   1.13374   1.13771
 Alpha virt. eigenvalues --    1.14494   1.14906   1.15932   1.17223   1.18443
 Alpha virt. eigenvalues --    1.18659   1.19358   1.19875   1.20141   1.21319
 Alpha virt. eigenvalues --    1.21545   1.22594   1.23002   1.23502   1.23990
 Alpha virt. eigenvalues --    1.24268   1.24771   1.25995   1.26576   1.27581
 Alpha virt. eigenvalues --    1.28422   1.28709   1.29549   1.30282   1.31771
 Alpha virt. eigenvalues --    1.32706   1.33886   1.34226   1.34779   1.34990
 Alpha virt. eigenvalues --    1.36016   1.37600   1.38007   1.39282   1.40603
 Alpha virt. eigenvalues --    1.41552   1.42455   1.43146   1.46146   1.47576
 Alpha virt. eigenvalues --    1.48041   1.49198   1.49421   1.51374   1.52361
 Alpha virt. eigenvalues --    1.53091   1.53128   1.54503   1.55012   1.55230
 Alpha virt. eigenvalues --    1.56195   1.56542   1.56720   1.57085   1.58377
 Alpha virt. eigenvalues --    1.58763   1.59062   1.59550   1.59853   1.60817
 Alpha virt. eigenvalues --    1.61218   1.61473   1.61817   1.62470   1.62717
 Alpha virt. eigenvalues --    1.63317   1.63671   1.63911   1.64432   1.64629
 Alpha virt. eigenvalues --    1.65088   1.65600   1.65844   1.66487   1.66642
 Alpha virt. eigenvalues --    1.66936   1.67261   1.67697   1.68163   1.68550
 Alpha virt. eigenvalues --    1.69745   1.69960   1.70747   1.71763   1.72547
 Alpha virt. eigenvalues --    1.72997   1.74120   1.74442   1.75140   1.76012
 Alpha virt. eigenvalues --    1.76317   1.77503   1.79084   1.79312   1.79798
 Alpha virt. eigenvalues --    1.79988   1.80656   1.82114   1.82227   1.82874
 Alpha virt. eigenvalues --    1.84029   1.84880   1.85518   1.85837   1.86315
 Alpha virt. eigenvalues --    1.88042   1.88274   1.89175   1.89735   1.90068
 Alpha virt. eigenvalues --    1.90920   1.91704   1.93183   1.93991   1.94461
 Alpha virt. eigenvalues --    1.95202   1.96301   1.97162   1.97908   1.99021
 Alpha virt. eigenvalues --    1.99083   2.00635   2.01830   2.02103   2.02485
 Alpha virt. eigenvalues --    2.03628   2.04700   2.05362   2.05899   2.07017
 Alpha virt. eigenvalues --    2.07858   2.09037   2.09693   2.10021   2.11044
 Alpha virt. eigenvalues --    2.11421   2.11831   2.12310   2.13452   2.14555
 Alpha virt. eigenvalues --    2.15895   2.16111   2.17044   2.17647   2.18312
 Alpha virt. eigenvalues --    2.18577   2.19023   2.19830   2.21701   2.22301
 Alpha virt. eigenvalues --    2.22412   2.23335   2.23929   2.25793   2.26448
 Alpha virt. eigenvalues --    2.27531   2.27762   2.30074   2.30646   2.31325
 Alpha virt. eigenvalues --    2.31610   2.31796   2.32845   2.34119   2.34361
 Alpha virt. eigenvalues --    2.34577   2.35146   2.35687   2.36193   2.36719
 Alpha virt. eigenvalues --    2.37622   2.38135   2.38710   2.39046   2.39465
 Alpha virt. eigenvalues --    2.40074   2.40387   2.40933   2.41453   2.42168
 Alpha virt. eigenvalues --    2.42372   2.42800   2.43795   2.44058   2.44691
 Alpha virt. eigenvalues --    2.45573   2.46811   2.47931   2.48265   2.49032
 Alpha virt. eigenvalues --    2.49654   2.50117   2.50848   2.51181   2.52178
 Alpha virt. eigenvalues --    2.53177   2.53864   2.55021   2.55178   2.55560
 Alpha virt. eigenvalues --    2.56298   2.56916   2.57105   2.58195   2.58410
 Alpha virt. eigenvalues --    2.58785   2.59354   2.59830   2.60744   2.60779
 Alpha virt. eigenvalues --    2.61466   2.62309   2.62513   2.63089   2.63414
 Alpha virt. eigenvalues --    2.63700   2.64240   2.64851   2.65373   2.66252
 Alpha virt. eigenvalues --    2.66383   2.67088   2.67612   2.67900   2.68759
 Alpha virt. eigenvalues --    2.69353   2.69995   2.70730   2.71673   2.71953
 Alpha virt. eigenvalues --    2.72374   2.73394   2.73695   2.74271   2.74450
 Alpha virt. eigenvalues --    2.75489   2.75667   2.76716   2.77393   2.77622
 Alpha virt. eigenvalues --    2.78364   2.79552   2.80458   2.80782   2.81938
 Alpha virt. eigenvalues --    2.82578   2.83284   2.83771   2.84475   2.84949
 Alpha virt. eigenvalues --    2.85553   2.85694   2.87142   2.87866   2.88963
 Alpha virt. eigenvalues --    2.89117   2.90069   2.90346   2.91038   2.91291
 Alpha virt. eigenvalues --    2.91558   2.93046   2.93777   2.95762   2.96528
 Alpha virt. eigenvalues --    2.96747   2.97011   2.97984   3.01020   3.01725
 Alpha virt. eigenvalues --    3.02941   3.03439   3.04032   3.04391   3.05143
 Alpha virt. eigenvalues --    3.06570   3.06733   3.07523   3.08077   3.08316
 Alpha virt. eigenvalues --    3.09324   3.11025   3.11320   3.11410   3.12739
 Alpha virt. eigenvalues --    3.13254   3.13782   3.14258   3.14926   3.15447
 Alpha virt. eigenvalues --    3.15775   3.16237   3.17040   3.17920   3.18483
 Alpha virt. eigenvalues --    3.18826   3.19285   3.19912   3.20261   3.20628
 Alpha virt. eigenvalues --    3.21488   3.22032   3.22599   3.22653   3.23605
 Alpha virt. eigenvalues --    3.24424   3.25383   3.25884   3.26284   3.26885
 Alpha virt. eigenvalues --    3.27243   3.27650   3.28529   3.29061   3.29278
 Alpha virt. eigenvalues --    3.29564   3.30841   3.31130   3.31426   3.32024
 Alpha virt. eigenvalues --    3.32903   3.33221   3.33793   3.34224   3.34817
 Alpha virt. eigenvalues --    3.35636   3.36289   3.36510   3.37102   3.37465
 Alpha virt. eigenvalues --    3.38581   3.38880   3.39209   3.39766   3.41039
 Alpha virt. eigenvalues --    3.41304   3.42525   3.42902   3.43335   3.43497
 Alpha virt. eigenvalues --    3.44664   3.45014   3.45922   3.46719   3.46982
 Alpha virt. eigenvalues --    3.47222   3.47954   3.48316   3.49400   3.49859
 Alpha virt. eigenvalues --    3.50236   3.50844   3.51755   3.51967   3.52663
 Alpha virt. eigenvalues --    3.53155   3.53826   3.54756   3.55245   3.56323
 Alpha virt. eigenvalues --    3.56662   3.57597   3.57699   3.58274   3.58868
 Alpha virt. eigenvalues --    3.59280   3.60550   3.60952   3.62143   3.63212
 Alpha virt. eigenvalues --    3.64284   3.65228   3.66150   3.67294   3.67925
 Alpha virt. eigenvalues --    3.68676   3.69321   3.69813   3.70879   3.72450
 Alpha virt. eigenvalues --    3.73475   3.74145   3.75495   3.76014   3.76540
 Alpha virt. eigenvalues --    3.76977   3.77558   3.77912   3.79206   3.80582
 Alpha virt. eigenvalues --    3.81262   3.82218   3.84044   3.84942   3.87926
 Alpha virt. eigenvalues --    3.90110   3.91855   3.92567   3.94137   3.94775
 Alpha virt. eigenvalues --    3.95893   3.96058   3.98028   3.98223   3.98840
 Alpha virt. eigenvalues --    4.00349   4.00844   4.01168   4.02321   4.03637
 Alpha virt. eigenvalues --    4.03787   4.05275   4.06343   4.06825   4.08311
 Alpha virt. eigenvalues --    4.08677   4.08989   4.10672   4.12293   4.12819
 Alpha virt. eigenvalues --    4.15222   4.15381   4.17222   4.18926   4.18964
 Alpha virt. eigenvalues --    4.19319   4.20535   4.22698   4.23742   4.25128
 Alpha virt. eigenvalues --    4.25559   4.26883   4.28196   4.29526   4.29928
 Alpha virt. eigenvalues --    4.30452   4.31851   4.32701   4.34263   4.36726
 Alpha virt. eigenvalues --    4.36943   4.37603   4.38549   4.38937   4.39517
 Alpha virt. eigenvalues --    4.39691   4.41437   4.41812   4.43307   4.43583
 Alpha virt. eigenvalues --    4.44998   4.46778   4.49029   4.49834   4.50620
 Alpha virt. eigenvalues --    4.53641   4.54308   4.54710   4.56465   4.57781
 Alpha virt. eigenvalues --    4.58127   4.59681   4.60845   4.61912   4.66454
 Alpha virt. eigenvalues --    4.67787   4.71007   4.71889   4.72682   4.73410
 Alpha virt. eigenvalues --    4.77614   4.79883   4.80893   4.82337   4.83074
 Alpha virt. eigenvalues --    4.85504   4.87104   4.87593   4.88608   4.91626
 Alpha virt. eigenvalues --    4.92406   4.95532   4.97849   5.02999   5.08300
 Alpha virt. eigenvalues --    5.14691   5.15645   5.16108   5.17811   5.19148
 Alpha virt. eigenvalues --    5.23424   5.25807   5.29671   5.32288   5.33647
 Alpha virt. eigenvalues --    5.34949   5.38736   5.42223   5.46111   5.47380
 Alpha virt. eigenvalues --    5.50033   5.51203   5.55621   5.58878   5.60985
 Alpha virt. eigenvalues --    5.62334   5.63708   5.76855   5.79246   5.85421
 Alpha virt. eigenvalues --    5.92580   5.99142   6.00842   6.06229   6.12452
 Alpha virt. eigenvalues --    6.13083   6.19069   6.32099   6.35615   6.49021
 Alpha virt. eigenvalues --    6.61067   6.63618   6.66580   6.72492   6.77316
 Alpha virt. eigenvalues --    6.82463   6.84977   6.92684   6.97088   7.01955
 Alpha virt. eigenvalues --    7.08971   7.26185   7.27649   7.38946   7.67902
 Alpha virt. eigenvalues --   22.32506  22.42434  22.49328  22.50066  22.50860
 Alpha virt. eigenvalues --   22.51737  22.53410  22.56097  22.66364  22.67580
 Alpha virt. eigenvalues --   22.73068  22.75426  22.83159  22.89578  22.94335
 Alpha virt. eigenvalues --   22.97539  23.26213  23.32312  32.83699  44.04292
 Alpha virt. eigenvalues --   44.35125  44.46199
          Condensed to atoms (all electrons):
 Mulliken charges:
               1
     1  C   -0.447268
     2  C   -0.024885
     3  C    0.390560
     4  O   -0.351729
     5  O   -0.267607
     6  C   -0.118393
     7  C   -0.419565
     8  O   -0.296159
     9  N   -0.037117
    10  C   -0.045920
    11  C   -0.453287
    12  C   -0.427445
    13  C   -0.324009
    14  C   -0.088394
    15  C   -0.445991
    16  C   -0.452205
    17  C    0.099036
    18  C   -0.192442
    19  C   -0.142317
    20  C   -0.148114
    21  C   -0.151951
    22  C   -0.138224
    23  H    0.158384
    24  H    0.167107
    25  H    0.156589
    26  H    0.167380
    27  H    0.160324
    28  H    0.150425
    29  H    0.148314
    30  H    0.149207
    31  H    0.150590
    32  H    0.137173
    33  H    0.142961
    34  H    0.160236
    35  H    0.155050
    36  H    0.144047
    37  H    0.172366
    38  H    0.149747
    39  H    0.210858
    40  H    0.150096
    41  H    0.145310
    42  H    0.166575
    43  H    0.145265
    44  H    0.142120
    45  H    0.154434
    46  H    0.152700
    47  H    0.154805
    48  H    0.142911
    49  H    0.142150
    50  H    0.139731
    51  H    0.166567
 Sum of Mulliken charges =  -0.00000
 Mulliken charges with hydrogens summed into heavy atoms:
               1
     1  C    0.034813
     2  C    0.142495
     3  C    0.390560
     4  O   -0.351729
     5  O   -0.267607
     6  C    0.192356
     7  C    0.028546
     8  O   -0.296159
     9  N   -0.037117
    10  C    0.091253
    11  C    0.004960
    12  C    0.038716
    13  C   -0.113151
    14  C    0.061702
    15  C    0.011159
    16  C   -0.002951
    17  C    0.099036
    18  C   -0.037637
    19  C    0.000594
    20  C   -0.005964
    21  C   -0.012221
    22  C    0.028344
 Electronic spatial extent (au):  <R**2>=           6678.9961
 Charge=             -0.0000 electrons
 Dipole moment (field-independent basis, Debye):
    X=             -1.1524    Y=              0.6471    Z=              1.3689  Tot=              1.9028
 Quadrupole moment (field-independent basis, Debye-Ang):
   XX=           -136.8773   YY=           -126.2581   ZZ=           -139.6269
   XY=              7.1458   XZ=              6.1228   YZ=             -3.3802
 Traceless Quadrupole moment (field-independent basis, Debye-Ang):
   XX=             -2.6232   YY=              7.9960   ZZ=             -5.3728
   XY=              7.1458   XZ=              6.1228   YZ=             -3.3802
 Octapole moment (field-independent basis, Debye-Ang**2):
  XXX=            -25.3388  YYY=             -2.0676  ZZZ=             -2.2186  XYY=             29.1852
  XXY=             25.3264  XXZ=             28.1676  XZZ=              5.9971  YZZ=              3.5308
  YYZ=            -25.6849  XYZ=              1.1737
 Hexadecapole moment (field-independent basis, Debye-Ang**3):
 XXXX=          -4291.0611 YYYY=          -3079.1680 ZZZZ=          -1770.3206 XXXY=             68.1664
 XXXZ=            111.0294 YYYX=             64.1506 YYYZ=            -24.8360 ZZZX=            -11.7254
 ZZZY=              6.8953 XXYY=          -1127.6926 XXZZ=          -1048.8119 YYZZ=           -796.5629
 XXYZ=            -49.3182 YYXZ=             28.1210 ZZXY=             17.4367
 N-N= 2.023288005251D+03 E-N=-6.335940291562D+03  KE= 9.778429093626D+02
 No NMR shielding tensors so no spin-rotation constants.
 Leave Link  601 at Wed Jan  8 06:00:06 2025, MaxMem=  4026531840 cpu:              19.6 elap:               1.7
 (Enter /usr/local/intel/g16/l607.exe)
 ******************************Gaussian NBO Version 3.1******************************
             N A T U R A L   A T O M I C   O R B I T A L   A N D
          N A T U R A L   B O N D   O R B I T A L   A N A L Y S I S
 ******************************Gaussian NBO Version 3.1******************************
       /RESON  / : Allow strongly delocalized NBO set

 Analyzing the SCF density

 Job title: data_set_12-nBA_dormant-41                                      

[...]
 10,0.00000478,0.00005723,-0.00000291,-0.00000687,-0.00002177,0.0000001
 7,-0.00000684,-0.00005312,0.00000760,0.00001209,0.00003291,0.00000006,
 -0.00000442,-0.00000854,-0.00001165,0.00006439,-0.00002867,0.00000916,
 -0.00015858,0.00029948,-0.00006103,-0.00000477,-0.00005671,0.00000945,
 -0.00002711,0.00000031,0.00000209,0.00001530,0.00001398,-0.00002346,-0
 .00057501,-0.00028262,0.00014363,0.00001300,0.00012467,0.00006314,-0.0
 0002864,-0.00001748,-0.00000946,-0.00004162,-0.00004802,-0.00003060,-0
 .00109754,0.00561424,0.00366775,-0.01612706,0.00057162,0.00370177,-0.0
 0429860,0.01089390,-0.04512889,0.01536237,-0.00239709,0.00425976,0.001
 95648,0.00543333,0.00380443,0.00008834,0.00043015,-0.00118074,-0.00000
 353,0.00000044,0.00000074,0.00000254,0.00000015,-0.00000092,0.00000128
 ,-0.00000742,0.00000261,-0.00000153,0.00000021,-0.00000366,-0.00000129
 ,-0.00000371,-0.00000007,-0.00000058,-0.00000639,0.00000106,-0.0000088
 4,0.00000397,0.00001143,0.00000392,-0.00000177,0.00000295,-0.00000254,
 0.00000326,-0.00000423,-0.00000234,0.00001463,-0.00000061,0.00001078,-
 0.00001067,0.00001479,-0.00000423,0.00000056,-0.00000569,0.00000975,-0
 .00001038,0.00000062,-0.00000474,-0.00000895,0.00000305,-0.00001202,0.
 00000917,0.00001086,0.00001478,0.00001707,0.00000344,0.00002184,-0.000
 00456,-0.00001588,-0.00001175,-0.00001928,-0.00001084,0.00000988,0.000
 02791,-0.00000584,-0.00000856,0.00000454,0.00000642,0.00001124,-0.0000
 0158,-0.00002168,0.00000743,0.00000260,0.00000262,-0.00000839,0.000016
 89,-0.00001644,0.00000732,-0.00000487,0.00000799,0.00015448,-0.0023333
 0,-0.00247745,0.00442357,-0.01529336,0.03639139,-0.00002075,0.00000451
 ,-0.00000832,0.00007636,-0.00000623,0.00001367,0.00007832,-0.00009377,
 -0.00002421,-0.00007301,0.00002802,0.00002751,-0.00010343,0.00002954,0
 .00000620,0.00005466,0.00008127,-0.00001670,0.00000046,-0.00003024,0.0
 0000408,-0.00005794,0.00017032,-0.00000320,-0.00003620,-0.00003951,0.0
 0003325,-0.00001533,-0.00003005,-0.00002127,-0.00001024,0.00001009,0.0
 0000942,-0.00000937,0.00001272,0.00001770,0.00013298,-0.00004836,-0.00
 003617,-0.00002218,-0.00000953,0.00001512,-0.00000017,-0.00000461,0.00
 000703,0.00001936,-0.00000093,-0.00000431,-0.00118969,-0.00076711,0.00
 052011,-0.00138816,-0.00264387,0.00219560,0.01186350,-0.01473123,0.009
 74768,-0.10869317,0.08940584,-0.05848794,-0.00717832,0.02499119,-0.016
 66413,-0.00588833,-0.00020680,0.00049679,-0.00000381,0.00000777,0.0000
 0186,0.00000137,-0.00000058,0.00000161,0.00000268,0.00000010,-0.000000
 27,-0.00000814,0.00000111,-0.00000427,-0.00000867,-0.00000396,0.000004
 32,-0.00000981,-0.00000973,0.00000144,0.00001014,0.00002978,-0.0000206
 1,-0.00002275,-0.00000291,-0.00000181,0.00001209,0.00001282,0.00000998
 ,0.00000123,0.00000222,0.00000052,0.00000687,0.00000947,0.00000516,0.0
 0000144,-0.00000431,-0.00000191,0.00000843,-0.00000168,-0.00000033,0.0
 0001259,0.00001499,0.00000035,0.00000575,-0.00000979,-0.00002786,0.000
 00189,-0.00001291,-0.00000346,-0.00000223,0.00008767,-0.00006196,0.000
 04426,-0.00000011,0.00002601,0.00000867,0.00000825,-0.00002082,-0.0000
 1474,0.00001448,0.00002047,0.00000537,0.00000504,-0.00001060,0.0000014
 6,0.00000859,-0.00000895,-0.00000308,0.00000031,-0.00000303,-0.0000010
 5,-0.00000057,0.00000203,0.00037078,-0.00079491,0.00051264,0.00076725,
 0.00045293,-0.00051074,0.11052720,0.00000848,-0.00000527,0.00000548,-0
 .00004804,0.00002219,-0.00002530,-0.00005767,0.00003261,0.00002425,0.0
 0005234,-0.00001092,-0.00002036,0.00003744,-0.00002093,-0.00001146,-0.
 00002134,-0.00001346,0.00001116,-0.00000125,0.00000494,-0.00000405,0.0
 0010055,-0.00000386,-0.00004380,0.00006865,-0.00013160,0.00007057,0.00
 003263,0.00003286,0.00007922,-0.00002921,0.00001170,-0.00001270,-0.000
 03024,0.00001107,-0.00005160,-0.00002657,-0.00037812,-0.00058448,-0.00
 004253,0.00004522,-0.00000671,-0.00001379,0.00000446,0.00002230,-0.000
 02811,-0.00000501,-0.00000679,-0.00060390,-0.00000830,-0.00054791,-0.0
 0323923,0.00097736,0.00482902,0.01090830,-0.01130793,0.00936585,0.0893
 8364,-0.21516319,0.11835548,-0.00075009,0.00138022,0.00107965,0.000439
 41,0.00360112,0.00259684,0.00000308,-0.00000316,-0.00000032,-0.0000002
 8,0.00000052,-0.00000226,-0.00000346,0.00000377,-0.00000033,-0.0000000
 2,-0.00000127,0.00000199,0.00000390,-0.00000131,-0.00000281,0.00000371
 ,-0.00000072,0.00000017,-0.00000821,-0.00000512,0.00001239,0.00000782,
 0.00000172,0.00000065,-0.00000625,-0.00000364,-0.00000806,0.00000292,-
 0.00000301,-0.00001220,0.00001445,0.00001565,0.00001184,0.00000514,0.0
 0000356,-0.00000441,0.00000422,-0.00001461,-0.00000731,0.00001043,-0.0
 0002906,-0.00001061,0.00001531,-0.00000062,0.00001302,0.00001414,0.000
 01302,0.00004842,-0.00001535,0.00003417,-0.00002181,-0.00001553,0.0000
 0312,-0.00001533,0.00000494,0.00000530,-0.00001984,-0.00000686,-0.0000
 0631,-0.00001372,0.00001769,0.00000016,0.00000467,0.00000084,-0.000001
 33,0.00000039,0.00000299,0.00000814,0.00000158,0.00000079,-0.00000336,
 -0.00000376,0.00052759,-0.00063889,0.00053178,-0.00031695,-0.00069508,
 -0.00231316,-0.09654155,0.22306091,-0.00001069,0.00000264,-0.00000075,
 0.00003321,-0.00000430,0.00000172,0.00002444,0.00000903,-0.00000306,-0
 .00002057,-0.00000519,0.00000307,-0.00002280,-0.00002366,-0.00000570,0
 .00001356,0.00002874,-0.00000372,0.00000602,-0.00000825,0.00001316,-0.
 00001484,0.00005831,-0.00003182,0.00005925,-0.00017319,0.00009209,0.00
 003774,0.00002381,0.00006425,0.00002699,-0.00000662,-0.00001568,-0.000
 01108,-0.00000314,-0.00001627,-0.00003356,-0.00056459,-0.00085468,-0.0
 0010730,0.00005560,0.00004783,0.00000055,0.00001225,-0.00000992,-0.000
 03308,-0.00002334,-0.00002507,0.00053074,-0.00047557,-0.00052785,0.002
 71427,0.00472571,0.00440231,-0.00785363,0.01041587,-0.00381865,-0.0583
 9444,0.11825392,-0.11618913,0.00083835,0.00023642,0.00271991,0.0000627
 8,0.00251808,0.00562731,-0.00000304,0.00000181,-0.00000020,0.00000351,
 -0.00000007,-0.00000115,0.00000214,-0.00000259,0.00000155,-0.00000260,
 0.00000094,-0.00000478,0.00000097,-0.00000449,0.00000044,-0.00000391,-
 0.00000110,-0.00000078,0.00000299,0.00000571,-0.00000401,-0.00000730,-
 0.00000086,0.00000024,0.00000005,0.00000653,-0.00000487,-0.00000799,0.
 00000158,-0.00000332,-0.00001869,-0.00000785,0.00000188,-0.00000487,0.
 00000710,-0.00000332,-0.00001103,0.00000558,0.00000594,-0.00000003,0.0
 0000128,0.00000215,0.00000445,-0.00000526,0.00000238,0.00000143,0.0000
 0458,-0.00000654,-0.00001557,-0.00003344,0.00003365,-0.00002659,-0.000
 00020,-0.00004453,0.00000088,0.00000115,0.00000798,-0.00000094,0.00001
 481,0.00002058,-0.00000670,0.00000048,-0.00001398,0.00000477,-0.000000
 05,0.00000668,-0.00000995,0.00001265,-0.00001236,0.00000250,0.00000014
 ,0.00000232,-0.00038543,0.00058642,-0.00019043,-0.00001557,-0.00234174
 ,-0.00245629,0.06291475,-0.13127886,0.11358627,-0.00000770,-0.00000369
 ,0.00000607,0.00001581,0.00000218,0.00000266,-0.00006631,0.00022995,0.
 00001871,0.00006070,-0.00008110,-0.00002127,0.00004001,-0.00022309,0.0
 0002648,0.00005268,0.00012474,0.00005544,-0.00015128,0.00005987,-0.000
 24090,-0.00003262,-0.00007852,0.00002750,0.00003263,-0.00003091,0.0000
 0392,0.00001044,0.00000195,0.00000842,-0.00000891,0.00000939,-0.000002
 61,-0.00002340,0.00000884,-0.00000813,0.00054136,0.00038306,-0.0002817
 1,0.00003813,-0.00001558,0.00002555,-0.00000938,-0.00000283,0.00000727
 ,-0.00000769,-0.00000256,-0.00000029,-0.00000240,0.00275181,-0.0016321
 4,-0.00070660,0.00092773,-0.00066829,-0.00569434,0.00161952,-0.0006774
 1,-0.01265277,-0.02257428,0.01580057,-0.15448617,-0.10816272,0.0765784
 0,0.01149651,0.00965647,-0.00672058,0.00000115,0.00000259,-0.00000156,
 0.00000127,0.00000047,-0.00000120,-0.00000213,-0.00000647,-0.00000085,
 -0.00000061,-0.00000181,-0.00000373,-0.00000780,-0.00000994,-0.0000048
 7,0.00001607,-0.00005052,-0.00000021,-0.00014856,0.00007492,0.00007308
 ,0.00008372,-0.00002143,0.00005043,0.00004534,-0.00001231,0.00000672,0
 .00000392,0.00000305,0.00000387,-0.00000266,0.00000160,-0.00000294,0.0
 0000504,-0.00000355,-0.00000008,-0.00000211,-0.00000072,0.00000229,0.0
 0000009,-0.00000974,0.00000014,0.00001821,-0.00000832,0.00001060,-0.00
 001495,0.00001566,0.00001036,-0.00004859,0.00015688,-0.00011507,-0.000
 01324,-0.00000548,-0.00001357,-0.00000235,0.00000684,-0.00000002,-0.00
 000416,-0.00001403,-0.00000180,0.00000477,-0.00000601,0.00000183,-0.00
 000423,-0.00000507,0.00000682,-0.00000372,-0.00000033,-0.00000220,0.00
 000239,0.00000236,0.00000027,0.00006311,-0.00009014,0.00003249,-0.0007
 7593,-0.00108788,0.00081170,0.00102459,0.00028372,-0.00034913,0.160784
 11,0.00003672,-0.00000419,0.00000967,-0.00012611,0.00002241,-0.0000348
 8,-0.00000887,-0.00031448,0.00005512,0.00001071,0.00011013,-0.00002473
 ,0.00002023,0.00026165,-0.00007939,-0.00001877,-0.00014501,0.00002263,
 0.00007327,-0.00004486,0.00013994,0.00018051,0.00002345,-0.00011433,0.
 00005232,-0.00019328,0.00004007,0.00009476,0.00007097,0.00010608,-0.00
 004432,-0.00000145,-0.00004095,-0.00012026,-0.00002626,-0.00003442,-0.
 00123484,-0.00009298,0.00029388,-0.00011374,-0.00009082,-0.00010258,0.
 00002111,0.00001358,0.00000489,0.00004692,0.00003855,0.00004582,0.0031
 5090,-0.00018502,0.00541202,0.00092183,-0.00020508,-0.00033751,0.00102
 506,0.00334203,0.00263730,0.00341443,0.00542050,-0.00160790,-0.1087338
 2,-0.17710569,0.09742071,-0.01533638,-0.01156740,0.01072063,0.00000546
 ,-0.00001219,-0.00000098,-0.00000299,-0.00000458,-0.00000467,-0.000003
 12,0.00002047,-0.00000168,-0.00000075,0.00000089,0.00000944,0.00003295
 ,-0.00000028,-0.00000401,-0.00000181,0.00004921,-0.00001898,0.00014277
 ,0.00014643,-0.00002200,-0.00007489,0.00000483,-0.00003980,-0.00001217
 ,0.00000467,-0.00003996,-0.00000289,-0.00001857,-0.00002873,0.00003149
 ,-0.00000741,0.00000525,0.00000443,0.00001973,-0.00000719,0.00000623,-
 0.00001962,-0.00001337,0.00001753,-0.00001600,-0.00002306,0.00004023,-
 0.00001619,0.00002058,0.00002106,0.00001367,0.00002218,0.00013767,-0.0
 0033750,0.00014709,0.00002408,0.00002310,-0.00000001,0.00000294,-0.000
 00860,-0.00000820,-0.00001498,-0.00002420,-0.00002038,0.00000480,-0.00
 000007,0.00003121,0.00000648,0.00000703,-0.00001082,0.00001915,-0.0000
 1620,0.00002793,-0.00000429,-0.00001119,-0.00000917,-0.00013017,-0.000
 38691,-0.00052057,0.00023174,0.00014234,-0.00002826,-0.00048481,-0.000
 78161,-0.00206999,0.11675917,0.18251181,-0.00002366,0.00000326,0.00000
 538,0.00010632,-0.00003594,0.00003176,-0.00001759,0.00027958,0.0000049
 7,0.00000973,-0.00011026,-0.00000869,-0.00004283,-0.00029836,0.0000072
 8,0.00008243,0.00026250,0.00001712,0.00005526,-0.00008022,-0.00009506,
 -0.00010715,-0.00010237,0.00006963,-0.00000970,0.00003393,-0.00003016,
 -0.00000654,-0.00004415,0.00001466,-0.00001558,-0.00000344,-0.00001761
 ,-0.00000718,0.00000200,0.00000149,0.00082233,0.00004539,-0.00010735,-
 0.00000449,0.00010070,0.00000897,-0.00006577,0.00003473,-0.00003445,-0
 .00002103,-0.00005738,-0.00004326,-0.00167642,0.00552259,0.00415235,-0
 .00081614,-0.00020442,-0.00054724,-0.00035705,0.00248570,0.00565966,-0
 .00149820,-0.00086258,0.00378537,0.07652185,0.09776581,-0.10683815,0.0
 1066653,0.00956570,-0.00312323,-0.00000444,0.00000702,-0.00000289,0.00
 000602,-0.00000122,-0.00000213,0.00000272,-0.00001644,0.00000093,-0.00
 000568,0.00000020,-0.00001334,0.00000439,-0.00004486,-0.00000493,0.000
 00653,-0.00005924,0.00000271,-0.00019307,0.00005318,0.00023340,0.00006
 412,-0.00001370,0.00001926,-0.00008584,0.00002801,-0.00011205,0.000001
 21,0.00001532,0.00001027,-0.00000355,-0.00001646,-0.00000875,0.0000004
 4,-0.00000124,-0.00000277,0.00000169,-0.00000200,0.00000743,0.00000371
 ,0.00001161,0.00000623,0.00002658,-0.00000463,0.00000055,-0.00003368,0
 .00000573,0.00000500,-0.00008036,0.00015005,-0.00023030,-0.00001227,-0
 .00000250,-0.00002266,0.00000490,-0.00002512,0.00002667,0.00002772,0.0
 0001318,0.00001501,-0.00000936,0.00000015,-0.00002799,0.00000401,0.000
 00049,0.00000854,-0.00001593,0.00001732,-0.00002504,0.00000827,-0.0000
 0212,0.00001107,0.00000815,-0.00051219,-0.00081066,-0.00013666,0.00001
 035,0.00013870,0.00018301,-0.00211330,-0.00243969,-0.08308767,-0.10940
 507,0.10293133,-0.00025810,0.00001763,-0.00002516,0.00040824,0.0006912
 2,0.00014102,-0.00080311,0.00294497,0.00010317,0.00072565,-0.00081893,
 -0.00022980,-0.00082909,-0.00068702,-0.00001238,-0.00066409,-0.0009579
 5,0.00024964,-0.00008747,0.00001734,-0.00007944,-0.00231048,0.00294623
 ,-0.00014629,0.00020279,-0.00053832,0.00003805,-0.00003854,-0.00005659
 ,0.00013620,-0.00002709,0.00000751,-0.00004543,-0.00006670,0.00001281,
 0.00004235,0.00011277,0.00009933,-0.00067867,0.00002248,-0.00005124,0.
 00014493,-0.00004288,-0.00005374,0.00014583,0.00009715,0.00004513,0.00
 002641,-0.01267673,0.00266077,-0.00110904,-0.00002970,-0.00226197,0.00
 195893,0.00077853,-0.00023309,0.00009851,0.00114106,0.00178557,-0.0008
 1317,-0.00633829,-0.00029213,0.00076851,-0.34437220,0.02270215,-0.0076
 8209,-0.00002236,0.00008038,-0.00000174,0.00002297,-0.00001186,-0.0000
 0725,0.00000242,-0.00006381,-0.00001088,-0.00005405,-0.00001001,-0.000
 07581,0.00010816,0.00009553,-0.00006507,0.00015064,0.00012653,-0.00002
 503,0.00023768,-0.00010887,0.00009954,-0.00001491,0.00005888,0.0000207
 6,0.00017397,0.00000076,-0.00001392,0.00000092,0.00002777,0.00000819,-
 0.00000114,0.00000596,0.00000520,0.00001429,0.00000340,-0.00001385,-0.
 00000705,-0.00000832,0.00000327,0.00003536,0.00004957,-0.00000582,0.00
 000881,-0.00011783,-0.00009983,-0.00003143,-0.00000083,0.00001507,-0.0
 0003675,0.00005266,-0.00001399,0.00017209,-0.00001214,-0.00011098,0.00
 001715,0.00005214,-0.00003341,-0.00014691,0.00004416,0.00012929,0.0000
 0497,0.00001829,-0.00002544,-0.00001947,0.00003909,-0.00003206,-0.0000
 0269,-0.00000510,-0.00000328,-0.00000932,0.00003520,-0.00001595,-0.000
 57518,0.00020205,-0.00009876,-0.00005091,0.00000329,-0.00007834,-0.000
 27919,-0.00014867,0.00008496,0.00053855,-0.00006695,-0.00028009,0.3648
 1919,-0.00022414,0.00002649,-0.00006707,0.00113190,-0.00059007,0.00012
 558,0.00082479,0.00020493,-0.00013908,-0.00031017,-0.00018334,0.000125
 40,-0.00026593,-0.00120397,0.00006342,-0.00002090,0.00102012,-0.000112
 77,-0.00021366,0.00026378,-0.00029546,0.00185827,-0.00234694,-0.000047
 57,-0.00073904,-0.00133541,0.00059576,0.00005076,-0.00013236,-0.000222
 13,0.00000399,0.00005280,0.00010003,-0.00017467,0.00007785,0.00014597,
 -0.00051463,-0.00001791,-0.00213106,-0.00027125,-0.00001177,0.00016874
 ,-0.00003325,0.00020020,0.00000325,0.00005573,-0.00005377,-0.00005454,
 -0.02195872,0.00649196,-0.00084324,-0.00247505,-0.00084880,0.00522587,
 -0.00014939,-0.00114804,0.00024140,0.00171914,-0.00075860,0.00564062,0
 .02365238,0.00209788,0.00043765,0.02652587,-0.05384994,0.00970695,-0.0
 0003588,0.00008624,0.00001483,0.00002470,-0.00000614,0.00000644,0.0000
 1745,-0.00000754,0.00000087,-0.00015926,0.00002063,-0.00009447,-0.0000
 4254,-0.00011557,0.00002440,-0.00007598,-0.00019708,0.00004381,0.00000
 541,-0.00022829,0.00051249,0.00026624,-0.00009252,0.00003920,-0.000095
 20,-0.00009972,-0.00020404,0.00000830,-0.00002337,-0.00001109,0.000039
 68,0.00001669,-0.00000400,-0.00000263,-0.00001249,-0.00000917,0.000047
 28,0.00001215,-0.00000416,0.00008375,0.00002906,0.00000571,-0.00000378
 ,0.00003092,-0.00014289,0.00004008,0.00001296,0.00002314,0.00010105,0.
 00003496,-0.00014178,0.00025244,0.00018529,0.00035808,0.00003913,-0.00
 005286,-0.00002861,0.00008258,-0.00011714,0.00000980,0.00002915,-0.000
 05096,-0.00001351,0.00001448,0.00003524,-0.00002824,-0.00001836,0.0000
 1090,-0.00002308,0.00000702,-0.00004509,0.00002331,-0.00126785,0.00014
 640,0.00004360,-0.00002561,-0.00028627,-0.00060322,0.00109102,-0.00003
 612,0.00004318,-0.00057376,-0.00060984,-0.00239527,-0.02832095,0.05340
 450,0.00000026,0.00001086,-0.00001499,-0.00015116,0.00017063,0.0000188
 2,-0.00001524,-0.00007895,0.00012427,0.00011997,-0.00001911,-0.0000126
 7,-0.00014758,0.00020047,-0.00057795,0.00000629,-0.00012710,0.00004736
 ,0.00015604,-0.00006428,0.00036300,0.00047349,-0.00026494,-0.00010330,
 -0.00002806,-0.00030077,0.00013818,0.00020963,0.00002635,0.00025062,-0
 .00001878,-0.00001677,-0.00006787,-0.00015637,0.00005409,0.00013795,-0
 .00003297,-0.00215460,-0.00204794,0.00026522,0.00049576,-0.00010991,-0
 .00014487,0.00002369,0.00001243,-0.00043968,-0.00006759,-0.00002919,0.
 01514940,-0.00163190,0.00510615,0.00177725,0.00514447,0.00381254,0.000
 23070,0.00019631,-0.00096808,-0.00089921,0.00611712,0.00374529,-0.0168
 8664,0.00111566,0.00376009,-0.00654122,0.01025502,-0.04777319,-0.00000
 227,-0.00000818,0.00000175,0.00000770,-0.00002282,-0.00001722,-0.00000
 083,0.00000782,0.00000439,-0.00004171,0.00006273,-0.00005131,0.0001148
 6,0.00000689,-0.00002191,-0.00001464,0.00002034,-0.00001236,-0.0000219
 6,0.00027212,-0.00009347,-0.00003067,-0.00000527,-0.00014215,-0.000122
 54,-0.00012378,-0.00015666,-0.00002231,-0.00000940,-0.00004185,0.00000
 676,-0.00001941,0.00001286,0.00000992,0.00003369,-0.00001691,-0.000015
 22,-0.00001503,-0.00000362,0.00003206,0.00008625,-0.00003170,0.0000484
 3,-0.00006234,-0.00010341,-0.00002829,0.00001271,-0.00003327,-0.000023
 75,-0.00020896,0.00000090,-0.00070356,0.00033170,-0.00083974,-0.000053
 88,-0.00004441,0.00012943,0.00014366,-0.00012167,0.00008458,-0.0000055
 2,-0.00001505,0.00000618,0.00001798,-0.00010847,0.00009864,-0.00000913
 ,0.00005615,-0.00002139,0.00002072,-0.00003305,0.00000277,0.00078695,0
 .00003786,0.00003672,-0.00006354,-0.00065949,-0.00081135,-0.00083543,0
 .00007654,0.00004483,0.00026661,-0.00251884,-0.00262732,0.00761314,-0.
 01611308,0.03879098\\-0.00000101,-0.00000251,0.00000312,-0.00000071,-0
 .00000344,0.00000050,0.00000509,-0.00000302,-0.00000210,-0.00000350,-0
 .00000338,0.00000055,-0.00000429,-0.00000126,-0.00000101,-0.00000085,0
 .00000026,0.00000033,0.00000187,-0.00000068,-0.00000035,-0.00000095,0.
 00000210,0.00000020,0.00000076,0.00000047,-0.00000019,-0.00000012,0.00
 000171,0.00000125,-0.00000148,0.00000075,0.00000051,-0.00000106,-0.000
 00032,-0.00000092,0.00000078,0.00000117,0.00000129,-0.00000115,0.00000
 010,-0.00000013,0.00000126,0.00000067,0.00000048,0.00000022,0.00000041
 ,-0.00000080,-0.00000181,0.00000033,0.00000058,0.00000154,0.00000009,0
 .00000039,0.00000088,0.00000237,-0.00000037,0.00000044,0.00000013,0.00
 000073,0.00000098,0.00000028,0.00000027,0.00000134,0.00000069,-0.00000
 090,-0.00000056,0.00000006,-0.00000144,-0.00000167,-0.00000100,-0.0000
 0104,-0.00000071,-0.00000047,-0.00000165,-0.00000086,0.00000040,-0.000
 00075,0.00000056,-0.00000079,-0.00000034,0.00000116,-0.00000101,-0.000
 00136,0.00000108,-0.00000078,-0.00000030,0.00000116,-0.00000120,-0.000
 00104,0.00000158,-0.00000095,-0.00000103,-0.00000143,-0.00000024,0.000
 00069,-0.00000034,0.00000034,0.00000036,-0.00000118,0.00000047,0.00000
 047,-0.00000138,0.00000053,0.00000041,-0.00000114,0.00000114,0.0000006
 0,-0.00000037,0.00000013,0.00000016,-0.00000019,0.00000062,0.00000113,
 -0.00000012,0.00000077,0.00000046,0.00000129,-0.00000064,0.00000010,0.
 00000074,0.00000053,0.00000032,0.00000125,0.00000031,0.00000021,0.0000
 0058,0.00000029,-0.00000060,0.00000019,0.00000017,-0.00000032,0.000000
 04,0.00000045,-0.00000044,-0.00000069,-0.00000023,0.00000047,0.0000000
 9,0.00000141,0.00000055,0.00000068,0.00000160,0.00000079,0.00000093,0.
 00000081,0.00000041,0.00000058,0.00000019,-0.00000002,0.00000050,0.000
 00018,-0.00000022\\\@
 The archive entry for this job was punched.


 AND HERE I AM, FOR ALL MY LORE,
 THE WRETCHED FOOL I WAS BEFORE.
 CALLED MASTER OF ARTS, AND DOCTOR TO BOOT,
 FOR TEN YEARS ALMOST I CONFUTE
 AND UP AND DOWN, WHEREVER IT GOES
 I DRAG MY STUDENTS BY THE NOSE --
 AND SEE THAT FOR ALL OUR SCIENCE AND ART
 WE CAN KNOW NOTHING.  IT BURNS MY HEART.

                                       -- FAUST
 Job cpu time:       3 days  5 hours 38 minutes 31.2 seconds.
 Elapsed time:       0 days  3 hours 52 minutes 57.2 seconds.
 File lengths (MBytes):  RWF=   2901 Int=      0 D2E=      0 Chk=     60 Scr=      1
 Normal termination of Gaussian 16 at Wed Jan  8 16:33:59 2025.
