 Entering Gaussian System, Link 0=g16
 Input=gjfs/data_set_12-nBA_dormant-42.gjf
 Output=gjfs/data_set_12-nBA_dormant-42.log
 Initial command:
 /usr/local/intel/g16/l1.exe "/scr/Gau-1133760.inp" -scrdir="/scr/"
 Entering Link 1 = /usr/local/intel/g16/l1.exe PID=   1133762.
  
 Copyright (c) 1988-2019, Gaussian, Inc.  All Rights Reserved.
  
 This is part of the Gaussian(R) 16 program.  It is based on
 the Gaussian(R) 09 system (copyright 2009, Gaussian, Inc.),
 the Gaussian(R) 03 system (copyright 2003, Gaussian, Inc.),
 the Gaussian(R) 98 system (copyright 1998, Gaussian, Inc.),
 the Gaussian(R) 94 system (copyright 1995, Gaussian, Inc.),
 the Gaussian 92(TM) system (copyright 1992, Gaussian, Inc.),
 the Gaussian 90(TM) system (copyright 1990, Gaussian, Inc.),
 the Gaussian 88(TM) system (copyright 1988, Gaussian, Inc.),
 the Gaussian 86(TM) system (copyright 1986, Carnegie Mellon
 University), and the Gaussian 82(TM) system (copyright 1983,
 Carnegie Mellon University). Gaussian is a federally registered
 trademark of Gaussian, Inc.
  
 This software contains proprietary and confidential information,
 including trade secrets, belonging to Gaussian, Inc.
  
 This software is provided under written license and may be
 used, copied, transmitted, or stored only in accord with that
 written license.
  
 The following legend is applicable only to US Government
 contracts under FAR:
  
                    RESTRICTED RIGHTS LEGEND
  
 Use, reproduction and disclosure by the US Government is
 subject to restrictions as set forth in subparagraphs (a)
 and (c) of the Commercial Computer Software - Restricted
 Rights clause in FAR 52.227-19.
  
 Gaussian, Inc.
 340 Quinnipiac St., Bldg. 40, Wallingford CT 06492
  
  
 ---------------------------------------------------------------
 Warning -- This program may not be used in any manner that
 competes with the business of Gaussian, Inc. or will provide
 assistance to any competitor of Gaussian, Inc.  The licensee
 of this program is prohibited from giving any competitor of
 Gaussian, Inc. access to this program.  By using this program,
 the user acknowledges that Gaussian, Inc. is engaged in the
 business of creating and licensing software in the field of
 computational chemistry and represents and warrants to the
 licensee that it is not a competitor of Gaussian, Inc. and that
 it will not use this program in any manner prohibited above.
 ---------------------------------------------------------------
  

 Cite this work as:
 Gaussian 16, Revision C.01,
 M. J. Frisch, G. W. Trucks, H. B. Schlegel, G. E. Scuseria, 
 M. A. Robb, J. R. Cheeseman, G. Scalmani, V. Barone, 
 G. A. Petersson, H. Nakatsuji, X. Li, M. Caricato, A. V. Marenich, 
 J. Bloino, B. G. Janesko, R. Gomperts, B. Mennucci, H. P. Hratchian, 
 J. V. Ortiz, A. F. Izmaylov, J. L. Sonnenberg, D. Williams-Young, 
 F. Ding, F. Lipparini, F. Egidi, J. Goings, B. Peng, A. Petrone, 
 T. Henderson, D. Ranasinghe, V. G. Zakrzewski, J. Gao, N. Rega, 
 G. Zheng, W. Liang, M. Hada, M. Ehara, K. Toyota, R. Fukuda, 
 J. Hasegawa, M. Ishida, T. Nakajima, Y. Honda, O. Kitao, H. Nakai, 
 T. Vreven, K. Throssell, J. A. Montgomery, Jr., J. E. Peralta, 
 F. Ogliaro, M. J. Bearpark, J. J. Heyd, E. N. Brothers, K. N. Kudin, 
 V. N. Staroverov, T. A. Keith, R. Kobayashi, J. Normand, 
 K. Raghavachari, A. P. Rendell, J. C. Burant, S. S. Iyengar, 
 J. Tomasi, M. Cossi, J. M. Millam, M. Klene, C. Adamo, R. Cammi, 
 J. W. Ochterski, R. L. Martin, K. Morokuma, O. Farkas, 
 J. B. Foresman, and D. J. Fox, Gaussian, Inc., Wallingford CT, 2019.
 
 ******************************************
 Gaussian 16:  ES64L-G16RevC.01  3-Jul-2019
                 8-Jan-2025 
 ******************************************
 %nprocshared=20
 Will use up to   20 processors via shared memory.
 %mem=30GB
 %chk=outputs/data_set_12-nBA_dormant-42.chk
 ----------------------------------
 #p M062X/DEF2TZVP opt freq pop=NBO
 ----------------------------------
 1/18=20,19=15,26=3,38=1/1,3;
 2/9=110,12=2,17=6,18=5,40=1/2;
 3/5=44,7=101,11=2,25=1,30=1,71=1,74=-55/1,2,3;
 4//1;
 5/5=2,38=5/2;
 6/7=2,8=2,9=2,10=2,28=1,40=1/1,7;
 7//1,2,3,16;
 1/18=20,19=15,26=3/3(2);
 2/9=110/2;
 99//99;
 2/9=110/2;
 3/5=44,7=101,11=2,25=1,30=1,71=1,74=-55/1,2,3;
 4/5=5,16=3,69=1/1;
 5/5=2,38=5/2;
 7//1,2,3,16;
 1/18=20,19=15,26=3/3(-5);
 2/9=110/2;
 6/7=2,8=2,9=2,10=2,19=2,28=1,40=1/1,7;
 99/9=1/99;
 Leave Link    1 at Wed Jan  8 06:22:10 2025, MaxMem=  4026531840 cpu:              23.3 elap:               1.9
 (Enter /usr/local/intel/g16/l101.exe)
 --------------------------
 data_set_12-nBA_dormant-42
 --------------------------
 Symbolic Z-matrix:
 Charge =  0 Multiplicity = 1
 C                     2.21693  -2.81881  -0.5549 
 C                     1.9251   -1.42932  -0.00266 
 C                     3.04534  -0.43703  -0.31352 
 O                     4.09423  -0.69896  -0.91007 
 O                     2.75427   0.80096   0.17943 
 C                     3.70994   1.89365  -0.06708 
 C                     3.09252   3.14763   0.53236 
 O                     0.73995  -0.80387  -0.58033 
 N                    -0.48297  -1.504    -0.18929 
 C                    -1.01389  -2.15457  -1.42851 
 C                    -2.16075  -3.11029  -1.06324 
 C                    -1.40015  -1.19895  -2.5745 
 C                    -1.40515  -0.5877    0.54156 
 C                    -1.07101  -0.46814   2.07495 
 C                     0.08396   0.5072    2.39206 
 C                    -2.34133   0.05663   2.79055 
 C                    -0.75434  -1.8714    2.63719 
 C                    -1.69417   0.76347  -0.11846 
 C                    -3.03472   1.12397  -0.35056 
 C                    -3.37059   2.35301  -0.935 
 C                    -2.35722   3.2492   -1.30481 
 C                    -1.01689   2.90238  -1.07558 
 C                    -0.68461   1.67556  -0.48481 
 H                     1.40301  -3.49474  -0.27909 
 H                     3.15173  -3.20144  -0.13499 
 H                     2.32138  -2.78967  -1.64262 
 H                     1.80932  -1.4739    1.08684 
 H                     3.86545   1.97835  -1.14671 
 H                     4.66394   1.63233   0.40073 
 H                     2.13309   3.36983   0.05711 
 H                     3.76314   4.00011   0.38368 
 H                     2.9227    3.0181    1.60461 
 H                    -0.17561  -2.76453  -1.77803 
 H                    -3.09182  -2.5714   -0.85329 
 H                    -1.89643  -3.71331  -0.18849 
 H                    -2.35672  -3.78192  -1.90559 
 H                    -0.60612  -0.46731  -2.74604 
 H                    -2.326    -0.65759  -2.3602 
 H                    -1.5474   -1.77784  -3.49392 
 H                    -2.34755  -1.14936   0.52864 
 H                     0.33839   0.43547   3.45707 
 H                    -0.21079   1.54167   2.18685 
 H                     0.98408   0.30871   1.80724 
 H                    -2.15001   0.1499    3.86601 
 H                    -3.18665  -0.63144   2.65731 
 H                    -2.63618   1.04122   2.41316 
 H                    -1.55423  -2.58106   2.39028 
 H                    -0.66394  -1.823     3.72941 
 H                     0.17359  -2.27573   2.2262 
 H                    -3.82763   0.43291  -0.07325 
 H                    -4.41248   2.60614  -1.10361 
 H                    -2.60782   4.20049  -1.76328 
 H                    -0.226     3.58953  -1.36188 
 H                     0.35288   1.41359  -0.32142 
 
 ITRead=  0  0  0  0  0  0  0  0  0  0  0  0  0  0  0  0  0  0  0  0
 ITRead=  0  0  0  0  0  0  0  0  0  0  0  0  0  0  0  0  0  0  0  0
 ITRead=  0  0  0  0  0  0  0  0  0  0  0  0  0  0
 MicOpt= -1 -1 -1 -1 -1 -1 -1 -1 -1 -1 -1 -1 -1 -1 -1 -1 -1 -1 -1 -1
 MicOpt= -1 -1 -1 -1 -1 -1 -1 -1 -1 -1 -1 -1 -1 -1 -1 -1 -1 -1 -1 -1
 MicOpt= -1 -1 -1 -1 -1 -1 -1 -1 -1 -1 -1 -1 -1 -1
 NAtoms=     54 NQM=       54 NQMF=       0 NMMI=      0 NMMIF=      0
                NMic=       0 NMicF=      0.
                    Isotopes and Nuclear Properties:
 (Nuclear quadrupole moments (NQMom) in fm**2, nuclear magnetic moments (NMagM)
  in nuclear magnetons)

  Atom         1           2           3           4           5           6           7           8           9          10
 IAtWgt=          12          12          12          16          16          12          12          16          14          12
 AtmWgt=  12.0000000  12.0000000  12.0000000  15.9949146  15.9949146  12.0000000  12.0000000  15.9949146  14.0030740  12.0000000
 NucSpn=           0           0           0           0           0           0           0           0           2           0
 AtZEff=  -0.0000000  -0.0000000  -0.0000000  -0.0000000  -0.0000000  -0.0000000  -0.0000000  -0.0000000  -0.0000000  -0.0000000
 NQMom=    0.0000000   0.0000000   0.0000000   0.0000000   0.0000000   0.0000000   0.0000000   0.0000000   2.0440000   0.0000000
 NMagM=    0.0000000   0.0000000   0.0000000   0.0000000   0.0000000   0.0000000   0.0000000   0.0000000   0.4037610   0.0000000
 AtZNuc=   6.0000000   6.0000000   6.0000000   8.0000000   8.0000000   6.0000000   6.0000000   8.0000000   7.0000000   6.0000000

  Atom        11          12          13          14          15          16          17          18          19          20
 IAtWgt=          12          12          12          12          12          12          12          12          12          12
 AtmWgt=  12.0000000  12.0000000  12.0000000  12.0000000  12.0000000  12.0000000  12.0000000  12.0000000  12.0000000  12.0000000
 NucSpn=           0           0           0           0           0           0           0           0           0           0
 AtZEff=  -0.0000000  -0.0000000  -0.0000000  -0.0000000  -0.0000000  -0.0000000  -0.0000000  -0.0000000  -0.0000000  -0.0000000
 NQMom=    0.0000000   0.0000000   0.0000000   0.0000000   0.0000000   0.0000000   0.0000000   0.0000000   0.0000000   0.0000000
 NMagM=    0.0000000   0.0000000   0.0000000   0.0000000   0.0000000   0.0000000   0.0000000   0.0000000   0.0000000   0.0000000
 AtZNuc=   6.0000000   6.0000000   6.0000000   6.0000000   6.0000000   6.0000000   6.0000000   6.0000000   6.0000000   6.0000000

  Atom        21          22          23          24          25          26          27          28          29          30
 IAtWgt=          12          12          12           1           1           1           1           1           1           1
 AtmWgt=  12.0000000  12.0000000  12.0000000   1.0078250   1.0078250   1.0078250   1.0078250   1.0078250   1.0078250   1.0078250
 NucSpn=           0           0           0           1           1           1           1           1           1           1
 AtZEff=  -0.0000000  -0.0000000  -0.0000000  -0.0000000  -0.0000000  -0.0000000  -0.0000000  -0.0000000  -0.0000000  -0.0000000
 NQMom=    0.0000000   0.0000000   0.0000000   0.0000000   0.0000000   0.0000000   0.0000000   0.0000000   0.0000000   0.0000000
 NMagM=    0.0000000   0.0000000   0.0000000   2.7928460   2.7928460   2.7928460   2.7928460   2.7928460   2.7928460   2.7928460
 AtZNuc=   6.0000000   6.0000000   6.0000000   1.0000000   1.0000000   1.0000000   1.0000000   1.0000000   1.0000000   1.0000000

  Atom        31          32          33          34          35          36          37          38          39          40
 IAtWgt=           1           1           1           1           1           1           1           1           1           1
 AtmWgt=   1.0078250   1.0078250   1.0078250   1.0078250   1.0078250   1.0078250   1.0078250   1.0078250   1.0078250   1.0078250
 NucSpn=           1           1           1           1           1           1           1           1           1           1
 AtZEff=  -0.0000000  -0.0000000  -0.0000000  -0.0000000  -0.0000000  -0.0000000  -0.0000000  -0.0000000  -0.0000000  -0.0000000
 NQMom=    0.0000000   0.0000000   0.0000000   0.0000000   0.0000000   0.0000000   0.0000000   0.0000000   0.0000000   0.0000000
 NMagM=    2.7928460   2.7928460   2.7928460   2.7928460   2.7928460   2.7928460   2.7928460   2.7928460   2.7928460   2.7928460
 AtZNuc=   1.0000000   1.0000000   1.0000000   1.0000000   1.0000000   1.0000000   1.0000000   1.0000000   1.0000000   1.0000000

  Atom        41          42          43          44          45          46          47          48          49          50
 IAtWgt=           1           1           1           1           1           1           1           1           1           1
 AtmWgt=   1.0078250   1.0078250   1.0078250   1.0078250   1.0078250   1.0078250   1.0078250   1.0078250   1.0078250   1.0078250
 NucSpn=           1           1           1           1           1           1           1           1           1           1
 AtZEff=  -0.0000000  -0.0000000  -0.0000000  -0.0000000  -0.0000000  -0.0000000  -0.0000000  -0.0000000  -0.0000000  -0.0000000
 NQMom=    0.0000000   0.0000000   0.0000000   0.0000000   0.0000000   0.0000000   0.0000000   0.0000000   0.0000000   0.0000000
 NMagM=    2.7928460   2.7928460   2.7928460   2.7928460   2.7928460   2.7928460   2.7928460   2.7928460   2.7928460   2.7928460
 AtZNuc=   1.0000000   1.0000000   1.0000000   1.0000000   1.0000000   1.0000000   1.0000000   1.0000000   1.0000000   1.0000000

  Atom        51          52          53          54
 IAtWgt=           1           1           1           1
 AtmWgt=   1.0078250   1.0078250   1.0078250   1.0078250
 NucSpn=           1           1           1           1
 AtZEff=  -0.0000000  -0.0000000  -0.0000000  -0.0000000
 NQMom=    0.0000000   0.0000000   0.0000000   0.0000000
 NMagM=    2.7928460   2.7928460   2.7928460   2.7928460
 AtZNuc=   1.0000000   1.0000000   1.0000000   1.0000000
 Leave Link  101 at Wed Jan  8 06:22:14 2025, MaxMem=  4026531840 cpu:              22.7 elap:               3.5
 (Enter /usr/local/intel/g16/l103.exe)

 GradGradGradGradGradGradGradGradGradGradGradGradGradGradGradGradGradGrad
 Berny optimization.
 Initialization pass.
                           ----------------------------
                           !    Initial Parameters    !
                           ! (Angstroms and Degrees)  !
 --------------------------                            --------------------------
 ! Name  Definition              Value          Derivative Info.                !
 --------------------------------------------------------------------------------
 ! R1    R(1,2)                  1.5234         estimate D2E/DX2                !
 ! R2    R(1,24)                 1.0934         estimate D2E/DX2                !
 ! R3    R(1,25)                 1.0939         estimate D2E/DX2                !
 ! R4    R(1,26)                 1.0931         estimate D2E/DX2                !
 ! R5    R(2,3)                  1.5285         estimate D2E/DX2                !
 ! R6    R(2,8)                  1.4593         estimate D2E/DX2                !
 ! R7    R(2,27)                 1.0965         estimate D2E/DX2                !
 ! R8    R(3,4)                  1.2348         estimate D2E/DX2                !
 ! R9    R(3,5)                  1.3639         estimate D2E/DX2                !
 ! R10   R(5,6)                  1.4724         estimate D2E/DX2                !
 ! R11   R(6,7)                  1.5209         estimate D2E/DX2                !
 ! R12   R(6,28)                 1.094          estimate D2E/DX2                !
 ! R13   R(6,29)                 1.0942         estimate D2E/DX2                !
 ! R14   R(7,30)                 1.0935         estimate D2E/DX2                !
 ! R15   R(7,31)                 1.0948         estimate D2E/DX2                !
 ! R16   R(7,32)                 1.0933         estimate D2E/DX2                !
 ! R17   R(8,9)                  1.4624         estimate D2E/DX2                !
 ! R18   R(9,10)                 1.4969         estimate D2E/DX2                !
 ! R19   R(9,13)                 1.4914         estimate D2E/DX2                !
 ! R20   R(10,11)                1.5369         estimate D2E/DX2                !
 ! R21   R(10,12)                1.5413         estimate D2E/DX2                !
 ! R22   R(10,33)                1.094          estimate D2E/DX2                !
 ! R23   R(11,34)                1.0961         estimate D2E/DX2                !
 ! R24   R(11,35)                1.0949         estimate D2E/DX2                !
 ! R25   R(11,36)                1.095          estimate D2E/DX2                !
 ! R26   R(12,37)                1.0933         estimate D2E/DX2                !
 ! R27   R(12,38)                1.0937         estimate D2E/DX2                !
 ! R28   R(12,39)                1.0964         estimate D2E/DX2                !
 ! R29   R(13,14)                1.5739         estimate D2E/DX2                !
 ! R30   R(13,18)                1.5313         estimate D2E/DX2                !
 ! R31   R(13,40)                1.0972         estimate D2E/DX2                !
 ! R32   R(14,15)                1.5446         estimate D2E/DX2                !
 ! R33   R(14,16)                1.5496         estimate D2E/DX2                !
 ! R34   R(14,17)                1.5445         estimate D2E/DX2                !
 ! R35   R(15,41)                1.0973         estimate D2E/DX2                !
 ! R36   R(15,42)                1.095          estimate D2E/DX2                !
 ! R37   R(15,43)                1.0916         estimate D2E/DX2                !
 ! R38   R(16,44)                1.0963         estimate D2E/DX2                !
 ! R39   R(16,45)                1.0981         estimate D2E/DX2                !
 ! R40   R(16,46)                1.0949         estimate D2E/DX2                !
 ! R41   R(17,47)                1.0975         estimate D2E/DX2                !
 ! R42   R(17,48)                1.097          estimate D2E/DX2                !
 ! R43   R(17,49)                1.0924         estimate D2E/DX2                !
 ! R44   R(18,19)                1.4074         estimate D2E/DX2                !
 ! R45   R(18,23)                1.409          estimate D2E/DX2                !
 ! R46   R(19,20)                1.4018         estimate D2E/DX2                !
 ! R47   R(19,50)                1.0877         estimate D2E/DX2                !
 ! R48   R(20,21)                1.4024         estimate D2E/DX2                !
 ! R49   R(20,51)                1.0854         estimate D2E/DX2                !
 ! R50   R(21,22)                1.4033         estimate D2E/DX2                !
 ! R51   R(21,52)                1.0853         estimate D2E/DX2                !
 ! R52   R(22,23)                1.4016         estimate D2E/DX2                !
 ! R53   R(22,53)                1.0861         estimate D2E/DX2                !
 ! R54   R(23,54)                1.0825         estimate D2E/DX2                !
 ! A1    A(2,1,24)             109.2575         estimate D2E/DX2                !
 ! A2    A(2,1,25)             110.0954         estimate D2E/DX2                !
 ! A3    A(2,1,26)             110.775          estimate D2E/DX2                !
 ! A4    A(24,1,25)            108.8496         estimate D2E/DX2                !
 ! A5    A(24,1,26)            109.7935         estimate D2E/DX2                !
 ! A6    A(25,1,26)            108.0384         estimate D2E/DX2                !
 ! A7    A(1,2,3)              112.2103         estimate D2E/DX2                !
 ! A8    A(1,2,8)              113.7661         estimate D2E/DX2                !
 ! A9    A(1,2,27)             110.0796         estimate D2E/DX2                !
 ! A10   A(3,2,8)              103.6786         estimate D2E/DX2                !
 ! A11   A(3,2,27)             107.8095         estimate D2E/DX2                !
 ! A12   A(8,2,27)             108.9647         estimate D2E/DX2                !
 ! A13   A(2,3,4)              125.6708         estimate D2E/DX2                !
 ! A14   A(2,3,5)              111.06           estimate D2E/DX2                !
 ! A15   A(4,3,5)              123.2594         estimate D2E/DX2                !
 ! A16   A(3,5,6)              118.3305         estimate D2E/DX2                !
 ! A17   A(5,6,7)              106.4032         estimate D2E/DX2                !
 ! A18   A(5,6,28)             108.3558         estimate D2E/DX2                !
 ! A19   A(5,6,29)             108.4861         estimate D2E/DX2                !
 ! A20   A(7,6,28)             112.5092         estimate D2E/DX2                !
 ! A21   A(7,6,29)             112.48           estimate D2E/DX2                !
 ! A22   A(28,6,29)            108.4489         estimate D2E/DX2                !
 ! A23   A(6,7,30)             110.6363         estimate D2E/DX2                !
 ! A24   A(6,7,31)             109.8657         estimate D2E/DX2                !
 ! A25   A(6,7,32)             110.6058         estimate D2E/DX2                !
 ! A26   A(30,7,31)            108.6751         estimate D2E/DX2                !
 ! A27   A(30,7,32)            108.3025         estimate D2E/DX2                !
 ! A28   A(31,7,32)            108.6986         estimate D2E/DX2                !
 ! A29   A(2,8,9)              111.5988         estimate D2E/DX2                !
 ! A30   A(8,9,10)             106.4572         estimate D2E/DX2                !
 ! A31   A(8,9,13)             110.7305         estimate D2E/DX2                !
 ! A32   A(10,9,13)            116.9621         estimate D2E/DX2                !
 ! A33   A(9,10,11)            109.765          estimate D2E/DX2                !
 ! A34   A(9,10,12)            115.7813         estimate D2E/DX2                !
 ! A35   A(9,10,33)            103.5929         estimate D2E/DX2                !
 ! A36   A(11,10,12)           112.039          estimate D2E/DX2                !
 ! A37   A(11,10,33)           107.5176         estimate D2E/DX2                !
 ! A38   A(12,10,33)           107.467          estimate D2E/DX2                !
 ! A39   A(10,11,34)           111.9421         estimate D2E/DX2                !
 ! A40   A(10,11,35)           110.624          estimate D2E/DX2                !
 ! A41   A(10,11,36)           109.398          estimate D2E/DX2                !
 ! A42   A(34,11,35)           108.8347         estimate D2E/DX2                !
 ! A43   A(34,11,36)           107.2708         estimate D2E/DX2                !
 ! A44   A(35,11,36)           108.6625         estimate D2E/DX2                !
 ! A45   A(10,12,37)           110.4611         estimate D2E/DX2                !
 ! A46   A(10,12,38)           111.9223         estimate D2E/DX2                !
 ! A47   A(10,12,39)           109.256          estimate D2E/DX2                !
 ! A48   A(37,12,38)           108.3196         estimate D2E/DX2                !
 ! A49   A(37,12,39)           108.6208         estimate D2E/DX2                !
 ! A50   A(38,12,39)           108.1774         estimate D2E/DX2                !
 ! A51   A(9,13,14)            113.1311         estimate D2E/DX2                !
 ! A52   A(9,13,18)            116.5914         estimate D2E/DX2                !
 ! A53   A(9,13,40)            102.1711         estimate D2E/DX2                !
 ! A54   A(14,13,18)           113.1389         estimate D2E/DX2                !
 ! A55   A(14,13,40)           103.4567         estimate D2E/DX2                !
 ! A56   A(18,13,40)           106.5297         estimate D2E/DX2                !
 ! A57   A(13,14,15)           113.9996         estimate D2E/DX2                !
 ! A58   A(13,14,16)           107.5539         estimate D2E/DX2                !
 ! A59   A(13,14,17)           109.2177         estimate D2E/DX2                !
 ! A60   A(15,14,16)           107.7183         estimate D2E/DX2                !
 ! A61   A(15,14,17)           110.2217         estimate D2E/DX2                !
 ! A62   A(16,14,17)           107.9178         estimate D2E/DX2                !
 ! A63   A(14,15,41)           109.3509         estimate D2E/DX2                !
 ! A64   A(14,15,42)           110.9024         estimate D2E/DX2                !
 ! A65   A(14,15,43)           113.0641         estimate D2E/DX2                !
 ! A66   A(41,15,42)           107.8213         estimate D2E/DX2                !
 ! A67   A(41,15,43)           108.4753         estimate D2E/DX2                !
 ! A68   A(42,15,43)           107.0566         estimate D2E/DX2                !
 ! A69   A(14,16,44)           109.8015         estimate D2E/DX2                !
 ! A70   A(14,16,45)           111.2751         estimate D2E/DX2                !
 ! A71   A(14,16,46)           111.4768         estimate D2E/DX2                !
 ! A72   A(44,16,45)           107.8602         estimate D2E/DX2                !
 ! A73   A(44,16,46)           107.976          estimate D2E/DX2                !
 ! A74   A(45,16,46)           108.3219         estimate D2E/DX2                !
 ! A75   A(14,17,47)           110.8651         estimate D2E/DX2                !
 ! A76   A(14,17,48)           109.8306         estimate D2E/DX2                !
 ! A77   A(14,17,49)           111.9298         estimate D2E/DX2                !
 ! A78   A(47,17,48)           108.2148         estimate D2E/DX2                !
 ! A79   A(47,17,49)           107.1649         estimate D2E/DX2                !
 ! A80   A(48,17,49)           108.7172         estimate D2E/DX2                !
 ! A81   A(13,18,19)           118.4812         estimate D2E/DX2                !
 ! A82   A(13,18,23)           123.231          estimate D2E/DX2                !
 ! A83   A(19,18,23)           118.2785         estimate D2E/DX2                !
 ! A84   A(18,19,20)           121.437          estimate D2E/DX2                !
 ! A85   A(18,19,50)           119.3096         estimate D2E/DX2                !
 ! A86   A(20,19,50)           119.2531         estimate D2E/DX2                !
 ! A87   A(19,20,21)           119.8074         estimate D2E/DX2                !
 ! A88   A(19,20,51)           119.9511         estimate D2E/DX2                !
 ! A89   A(21,20,51)           120.2411         estimate D2E/DX2                !
 ! A90   A(20,21,22)           119.2844         estimate D2E/DX2                !
 ! A91   A(20,21,52)           120.3077         estimate D2E/DX2                !
 ! A92   A(22,21,52)           120.4079         estimate D2E/DX2                !
 ! A93   A(21,22,23)           120.7704         estimate D2E/DX2                !
 ! A94   A(21,22,53)           119.7408         estimate D2E/DX2                !
 ! A95   A(23,22,53)           119.4884         estimate D2E/DX2                !
 ! A96   A(18,23,22)           120.4196         estimate D2E/DX2                !
 ! A97   A(18,23,54)           119.3955         estimate D2E/DX2                !
 ! A98   A(22,23,54)           120.1768         estimate D2E/DX2                !
 ! D1    D(24,1,2,3)           178.2373         estimate D2E/DX2                !
 ! D2    D(24,1,2,8)           -64.4473         estimate D2E/DX2                !
 ! D3    D(24,1,2,27)           58.1714         estimate D2E/DX2                !
 ! D4    D(25,1,2,3)            58.7497         estimate D2E/DX2                !
 ! D5    D(25,1,2,8)           176.0651         estimate D2E/DX2                !
 ! D6    D(25,1,2,27)          -61.3163         estimate D2E/DX2                !
 ! D7    D(26,1,2,3)           -60.6862         estimate D2E/DX2                !
 ! D8    D(26,1,2,8)            56.6292         estimate D2E/DX2                !
 ! D9    D(26,1,2,27)          179.2479         estimate D2E/DX2                !
 ! D10   D(1,2,3,4)             -1.7173         estimate D2E/DX2                !
 ! D11   D(1,2,3,5)            179.4            estimate D2E/DX2                !
 ! D12   D(8,2,3,4)           -124.9047         estimate D2E/DX2                !
 ! D13   D(8,2,3,5)             56.2125         estimate D2E/DX2                !
 ! D14   D(27,2,3,4)           119.66           estimate D2E/DX2                !
 ! D15   D(27,2,3,5)           -59.2228         estimate D2E/DX2                !
 ! D16   D(1,2,8,9)             67.3359         estimate D2E/DX2                !
 ! D17   D(3,2,8,9)           -170.5058         estimate D2E/DX2                !
 ! D18   D(27,2,8,9)           -55.8932         estimate D2E/DX2                !
 ! D19   D(2,3,5,6)           -178.1283         estimate D2E/DX2                !
 ! D20   D(4,3,5,6)              2.9572         estimate D2E/DX2                !
 ! D21   D(3,5,6,7)            177.291          estimate D2E/DX2                !
 ! D22   D(3,5,6,28)            56.0834         estimate D2E/DX2                !
 ! D23   D(3,5,6,29)           -61.4648         estimate D2E/DX2                !
 ! D24   D(5,6,7,30)           -60.2529         estimate D2E/DX2                !
 ! D25   D(5,6,7,31)           179.7552         estimate D2E/DX2                !
 ! D26   D(5,6,7,32)            59.7536         estimate D2E/DX2                !
 ! D27   D(28,6,7,30)           58.2588         estimate D2E/DX2                !
 ! D28   D(28,6,7,31)          -61.733          estimate D2E/DX2                !
 ! D29   D(28,6,7,32)          178.2653         estimate D2E/DX2                !
 ! D30   D(29,6,7,30)         -178.9072         estimate D2E/DX2                !
 ! D31   D(29,6,7,31)           61.101          estimate D2E/DX2                !
 ! D32   D(29,6,7,32)          -58.9007         estimate D2E/DX2                !
 ! D33   D(2,8,9,10)          -111.3893         estimate D2E/DX2                !
 ! D34   D(2,8,9,13)           120.4914         estimate D2E/DX2                !
 ! D35   D(8,9,10,11)          170.2394         estimate D2E/DX2                !
 ! D36   D(8,9,10,12)          -61.7092         estimate D2E/DX2                !
 ! D37   D(8,9,10,33)           55.6606         estimate D2E/DX2                !
 ! D38   D(13,9,10,11)         -65.4018         estimate D2E/DX2                !
 ! D39   D(13,9,10,12)          62.6496         estimate D2E/DX2                !
 ! D40   D(13,9,10,33)        -179.9806         estimate D2E/DX2                !
 ! D41   D(8,9,13,14)          -83.8297         estimate D2E/DX2                !
 ! D42   D(8,9,13,18)           49.9349         estimate D2E/DX2                !
 ! D43   D(8,9,13,40)          165.6215         estimate D2E/DX2                !
 ! D44   D(10,9,13,14)         154.004          estimate D2E/DX2                !
 ! D45   D(10,9,13,18)         -72.2315         estimate D2E/DX2                !
 ! D46   D(10,9,13,40)          43.4551         estimate D2E/DX2                !
 ! D47   D(9,10,11,34)          76.935          estimate D2E/DX2                !
 ! D48   D(9,10,11,35)         -44.6322         estimate D2E/DX2                !
 ! D49   D(9,10,11,36)        -164.302          estimate D2E/DX2                !
 ! D50   D(12,10,11,34)        -53.1605         estimate D2E/DX2                !
 ! D51   D(12,10,11,35)       -174.7276         estimate D2E/DX2                !
 ! D52   D(12,10,11,36)         65.6025         estimate D2E/DX2                !
 ! D53   D(33,10,11,34)       -171.0223         estimate D2E/DX2                !
 ! D54   D(33,10,11,35)         67.4106         estimate D2E/DX2                !
 ! D55   D(33,10,11,36)        -52.2593         estimate D2E/DX2                !
 ! D56   D(9,10,12,37)          47.4417         estimate D2E/DX2                !
 ! D57   D(9,10,12,38)         -73.3414         estimate D2E/DX2                !
 ! D58   D(9,10,12,39)         166.8705         estimate D2E/DX2                !
 ! D59   D(11,10,12,37)        174.3607         estimate D2E/DX2                !
 ! D60   D(11,10,12,38)         53.5776         estimate D2E/DX2                !
 ! D61   D(11,10,12,39)        -66.2105         estimate D2E/DX2                !
 ! D62   D(33,10,12,37)        -67.7473         estimate D2E/DX2                !
 ! D63   D(33,10,12,38)        171.4695         estimate D2E/DX2                !
 ! D64   D(33,10,12,39)         51.6815         estimate D2E/DX2                !
 ! D65   D(9,13,14,15)          80.8518         estimate D2E/DX2                !
 ! D66   D(9,13,14,16)        -159.7915         estimate D2E/DX2                !
 ! D67   D(9,13,14,17)         -42.9201         estimate D2E/DX2                !
 ! D68   D(18,13,14,15)        -54.537          estimate D2E/DX2                !
 ! D69   D(18,13,14,16)         64.8198         estimate D2E/DX2                !
 ! D70   D(18,13,14,17)       -178.3089         estimate D2E/DX2                !
 ! D71   D(40,13,14,15)       -169.3962         estimate D2E/DX2                !
 ! D72   D(40,13,14,16)        -50.0394         estimate D2E/DX2                !
 ! D73   D(40,13,14,17)         66.8319         estimate D2E/DX2                !
 ! D74   D(9,13,18,19)         125.1093         estimate D2E/DX2                !
 ! D75   D(9,13,18,23)         -56.0207         estimate D2E/DX2                !
 ! D76   D(14,13,18,19)       -101.1296         estimate D2E/DX2                !
 ! D77   D(14,13,18,23)         77.7404         estimate D2E/DX2                !
 ! D78   D(40,13,18,19)         11.8748         estimate D2E/DX2                !
 ! D79   D(40,13,18,23)       -169.2552         estimate D2E/DX2                !
 ! D80   D(13,14,15,41)       -172.7472         estimate D2E/DX2                !
 ! D81   D(13,14,15,42)         68.4792         estimate D2E/DX2                !
 ! D82   D(13,14,15,43)        -51.7774         estimate D2E/DX2                !
 ! D83   D(16,14,15,41)         67.9891         estimate D2E/DX2                !
 ! D84   D(16,14,15,42)        -50.7845         estimate D2E/DX2                !
 ! D85   D(16,14,15,43)       -171.0411         estimate D2E/DX2                !
 ! D86   D(17,14,15,41)        -49.519          estimate D2E/DX2                !
 ! D87   D(17,14,15,42)       -168.2926         estimate D2E/DX2                !
 ! D88   D(17,14,15,43)         71.4508         estimate D2E/DX2                !
 ! D89   D(13,14,16,44)        179.7529         estimate D2E/DX2                !
 ! D90   D(13,14,16,45)         60.4118         estimate D2E/DX2                !
 ! D91   D(13,14,16,46)        -60.6335         estimate D2E/DX2                !
 ! D92   D(15,14,16,44)        -56.9552         estimate D2E/DX2                !
 ! D93   D(15,14,16,45)       -176.2963         estimate D2E/DX2                !
 ! D94   D(15,14,16,46)         62.6583         estimate D2E/DX2                !
 ! D95   D(17,14,16,44)         62.0353         estimate D2E/DX2                !
 ! D96   D(17,14,16,45)        -57.3058         estimate D2E/DX2                !
 ! D97   D(17,14,16,46)       -178.3511         estimate D2E/DX2                !
 ! D98   D(13,14,17,47)        -52.2429         estimate D2E/DX2                !
 ! D99   D(13,14,17,48)       -171.785          estimate D2E/DX2                !
 ! D100  D(13,14,17,49)         67.3563         estimate D2E/DX2                !
 ! D101  D(15,14,17,47)       -178.2177         estimate D2E/DX2                !
 ! D102  D(15,14,17,48)         62.2402         estimate D2E/DX2                !
 ! D103  D(15,14,17,49)        -58.6185         estimate D2E/DX2                !
 ! D104  D(16,14,17,47)         64.3976         estimate D2E/DX2                !
 ! D105  D(16,14,17,48)        -55.1445         estimate D2E/DX2                !
 ! D106  D(16,14,17,49)       -176.0032         estimate D2E/DX2                !
 ! D107  D(13,18,19,20)        179.1732         estimate D2E/DX2                !
 ! D108  D(13,18,19,50)         -1.0098         estimate D2E/DX2                !
 ! D109  D(23,18,19,20)          0.2465         estimate D2E/DX2                !
 ! D110  D(23,18,19,50)       -179.9365         estimate D2E/DX2                !
 ! D111  D(13,18,23,22)       -179.4404         estimate D2E/DX2                !
 ! D112  D(13,18,23,54)          1.5945         estimate D2E/DX2                !
 ! D113  D(19,18,23,22)         -0.5682         estimate D2E/DX2                !
 ! D114  D(19,18,23,54)       -179.5334         estimate D2E/DX2                !
 ! D115  D(18,19,20,21)          0.2184         estimate D2E/DX2                !
 ! D116  D(18,19,20,51)        179.9598         estimate D2E/DX2                !
 ! D117  D(50,19,20,21)       -179.5987         estimate D2E/DX2                !
 ! D118  D(50,19,20,51)          0.1427         estimate D2E/DX2                !
 ! D119  D(19,20,21,22)         -0.3619         estimate D2E/DX2                !
 ! D120  D(19,20,21,52)        179.6384         estimate D2E/DX2                !
 ! D121  D(51,20,21,22)        179.8974         estimate D2E/DX2                !
 ! D122  D(51,20,21,52)         -0.1023         estimate D2E/DX2                !
 ! D123  D(20,21,22,23)          0.0404         estimate D2E/DX2                !
 ! D124  D(20,21,22,53)        179.8113         estimate D2E/DX2                !
 ! D125  D(52,21,22,23)       -179.9599         estimate D2E/DX2                !
 ! D126  D(52,21,22,53)         -0.189          estimate D2E/DX2                !
 ! D127  D(21,22,23,18)          0.4329         estimate D2E/DX2                !
 ! D128  D(21,22,23,54)        179.3899         estimate D2E/DX2                !
 ! D129  D(53,22,23,18)       -179.3386         estimate D2E/DX2                !
 ! D130  D(53,22,23,54)         -0.3816         estimate D2E/DX2                !
 --------------------------------------------------------------------------------
 Trust Radius=3.00D-01 FncErr=1.00D-07 GrdErr=1.00D-06 EigMax=2.50D+02 EigMin=1.00D-04
 Number of steps in this run=    292 maximum allowed number of steps=    324.
 GradGradGradGradGradGradGradGradGradGradGradGradGradGradGradGradGradGrad

 Leave Link  103 at Wed Jan  8 06:22:16 2025, MaxMem=  4026531840 cpu:               0.4 elap:               1.7
 (Enter /usr/local/intel/g16/l202.exe)
 Stoichiometry    C19H31NO3
 Framework group  C1[X(C19H31NO3)]
 Deg. of freedom   156
 Full point group                 C1      NOp   1
 Largest Abelian subgroup         C1      NOp   1
 Largest concise Abelian subgroup C1      NOp   1
                         Standard orientation:                         
 ---------------------------------------------------------------------
 Center     Atomic      Atomic             Coordinates (Angstroms)
 Number     Number       Type             X           Y           Z
 ---------------------------------------------------------------------
      1          6           0        2.216933   -2.818810   -0.554903
      2          6           0        1.925102   -1.429323   -0.002663
      3          6           0        3.045340   -0.437030   -0.313523
      4          8           0        4.094229   -0.698963   -0.910068
      5          8           0        2.754270    0.800960    0.179426
      6          6           0        3.709942    1.893652   -0.067084
      7          6           0        3.092516    3.147627    0.532364
      8          8           0        0.739949   -0.803870   -0.580332
      9          7           0       -0.482968   -1.504003   -0.189294
     10          6           0       -1.013886   -2.154570   -1.428511
     11          6           0       -2.160755   -3.110286   -1.063236
     12          6           0       -1.400154   -1.198951   -2.574498
     13          6           0       -1.405146   -0.587704    0.541555
     14          6           0       -1.071009   -0.468140    2.074947
     15          6           0        0.083960    0.507200    2.392063
     16          6           0       -2.341332    0.056629    2.790552
     17          6           0       -0.754338   -1.871397    2.637187
     18          6           0       -1.694169    0.763465   -0.118460
     19          6           0       -3.034719    1.123974   -0.350564
     20          6           0       -3.370594    2.353012   -0.935004
     21          6           0       -2.357217    3.249198   -1.304812
     22          6           0       -1.016887    2.902379   -1.075582
     23          6           0       -0.684608    1.675557   -0.484805
     24          1           0        1.403010   -3.494738   -0.279092
     25          1           0        3.151734   -3.201437   -0.134986
     26          1           0        2.321381   -2.789666   -1.642624
     27          1           0        1.809318   -1.473896    1.086837
     28          1           0        3.865454    1.978347   -1.146705
     29          1           0        4.663941    1.632329    0.400726
     30          1           0        2.133088    3.369825    0.057114
     31          1           0        3.763136    4.000108    0.383676
     32          1           0        2.922700    3.018105    1.604608
     33          1           0       -0.175611   -2.764529   -1.778029
     34          1           0       -3.091818   -2.571396   -0.853288
     35          1           0       -1.896431   -3.713313   -0.188485
     36          1           0       -2.356725   -3.781922   -1.905588
     37          1           0       -0.606124   -0.467305   -2.746041
     38          1           0       -2.325998   -0.657594   -2.360201
     39          1           0       -1.547400   -1.777838   -3.493917
     40          1           0       -2.347547   -1.149362    0.528638
     41          1           0        0.338385    0.435467    3.457073
     42          1           0       -0.210787    1.541665    2.186847
     43          1           0        0.984076    0.308712    1.807235
     44          1           0       -2.150005    0.149902    3.866005
     45          1           0       -3.186649   -0.631439    2.657308
     46          1           0       -2.636183    1.041220    2.413157
     47          1           0       -1.554230   -2.581062    2.390284
     48          1           0       -0.663943   -1.822997    3.729409
     49          1           0        0.173590   -2.275730    2.226202
     50          1           0       -3.827633    0.432913   -0.073246
     51          1           0       -4.412475    2.606135   -1.103614
     52          1           0       -2.607817    4.200490   -1.763279
     53          1           0       -0.225999    3.589531   -1.361877
     54          1           0        0.352884    1.413594   -0.321420
 ---------------------------------------------------------------------
 Rotational constants (GHZ):           0.2916876           0.2228718           0.1826065
 Leave Link  202 at Wed Jan  8 06:22:17 2025, MaxMem=  4026531840 cpu:               0.1 elap:               0.1
 (Enter /usr/local/intel/g16/l301.exe)
 Standard basis: def2TZVP (5D, 7F)
 Ernie: Thresh=  0.10000D-02 Tol=  0.10000D-05 Strict=F.
 There are  1014 symmetry adapted cartesian basis functions of A   symmetry.
 There are   899 symmetry adapted basis functions of A   symmetry.
   899 basis functions,  1421 primitive gaussians,  1014 cartesian basis functions
    88 alpha electrons       88 beta electrons
       nuclear repulsion energy      2192.9707682544 Hartrees.
 IExCor= 4336 DFT=T Ex+Corr=M062X ExCW=0 ScaHFX=  0.540000
 ScaDFX=  1.000000  1.000000  1.000000  1.000000 ScalE2=  1.000000  1.000000
 IRadAn=      5 IRanWt=     -1 IRanGd=            0 ICorTp=0 IEmpDi=  4
 NAtoms=   54 NActive=   54 NUniq=   54 SFac= 1.00D+00 NAtFMM=   60 NAOKFM=F Big=F
 Integral buffers will be    131072 words long.
 Raffenetti 2 integral format.
 Two-electron integral symmetry is turned on.
 Leave Link  301 at Wed Jan  8 06:22:21 2025, MaxMem=  4026531840 cpu:               1.3 elap:               2.6
 (Enter /usr/local/intel/g16/l302.exe)
 NPDir=0 NMtPBC=     1 NCelOv=     1 NCel=       1 NClECP=     1 NCelD=      1
         NCelK=      1 NCelE2=     1 NClLst=     1 CellRange=     0.0.
 One-electron integrals computed using PRISM.
 One-electron integral symmetry used in STVInt
   1 Symmetry operations used in ECPInt.
 ECPInt:  NShTT=   71253 NPrTT=  209580 LenC2=   63946 LenP2D=  133676.
 LDataN:  DoStor=T MaxTD1= 6 Len=  172
 NBasis=   899 RedAO= T EigKep=  5.82D-06  NBF=   899
 NBsUse=   899 1.00D-06 EigRej= -1.00D+00 NBFU=   899
 Precomputing XC quadrature grid using
 IXCGrd= 4 IRadAn=           5 IRanWt=          -1 IRanGd=           0 AccXCQ= 0.00D+00.
 Generated NRdTot=       0 NPtTot=           0 NUsed=           0 NTot=          32
 NSgBfM=  1005  1005  1005  1005  1005 MxSgAt=    54 MxSgA2=    54.
 Leave Link  302 at Wed Jan  8 06:22:26 2025, MaxMem=  4026531840 cpu:              58.6 elap:               4.2
 (Enter /usr/local/intel/g16/l303.exe)
 DipDrv:  MaxL=1.
 Leave Link  303 at Wed Jan  8 06:22:30 2025, MaxMem=  4026531840 cpu:               6.2 elap:               0.9
 (Enter /usr/local/intel/g16/l401.exe)
 ExpMin= 9.52D-02 ExpMax= 2.70D+04 ExpMxC= 9.22D+02 IAcc=3 IRadAn=         5 AccDes= 0.00D+00
 Harris functional with IExCor= 1009 and IRadAn=       5 diagonalized for initial guess.
 HarFok:  IExCor= 1009 AccDes= 0.00D+00 IRadAn=         5 IDoV= 1 UseB2=F ITyADJ=14
 ICtDFT=  3500011 ScaDFX=  1.000000  1.000000  1.000000  1.000000
 FoFCou: FMM=F IPFlag=           0 FMFlag=      100000 FMFlg1=           0
         NFxFlg=           0 DoJE=T BraDBF=F KetDBF=T FulRan=T
         wScrn=  0.000000 ICntrl=       500 IOpCl=  0 I1Cent=   200000004 NGrid=           0
         NMat0=    1 NMatS0=      1 NMatT0=    0 NMatD0=    1 NMtDS0=    0 NMtDT0=    0
 Petite list used in FoFCou.
 Harris En= -1022.63317134950    
 JPrj=0 DoOrth=F DoCkMO=F.
 Leave Link  401 at Wed Jan  8 06:22:44 2025, MaxMem=  4026531840 cpu:             175.1 elap:              11.2
 (Enter /usr/local/intel/g16/l502.exe)
 Integral symmetry usage will be decided dynamically.
 Closed shell SCF:
 Using DIIS extrapolation, IDIIS=  1040.
 NGot=  4026531840 LenX=  4024444726 LenY=  4023415516
 Requested convergence on RMS density matrix=1.00D-08 within 128 cycles.
 Requested convergence on MAX density matrix=1.00D-06.
 Requested convergence on             energy=1.00D-06.
 No special actions if energy rises.
 Fock matrices will be formed incrementally for  20 cycles.
 Integral accuracy reduced to 1.0D-05 until final iterations.

 Cycle   1  Pass 0  IDiag  1:
 FoFJK:  IHMeth= 1 ICntrl=       0 DoSepK=F KAlg= 0 I1Cent=           0 FoldK=F
 IRaf= 830000000 NMat=       1 IRICut=       1 DoRegI=T DoRafI=F ISym2E= 0 IDoP0=0 IntGTp=1.
 FoFCou: FMM=F IPFlag=           0 FMFlag=      100000 FMFlg1=           0
         NFxFlg=           0 DoJE=F BraDBF=F KetDBF=F FulRan=T
         wScrn=  0.000000 ICntrl=         0 IOpCl=  0 I1Cent=           0 NGrid=           0
         NMat0=    1 NMatS0=      1 NMatT0=    0 NMatD0=    1 NMtDS0=    0 NMtDT0=    0
 Symmetry not used in FoFCou.
 E= -1022.24705226506    
 DIIS: error= 1.88D-02 at cycle   1 NSaved=   1.
 NSaved= 1 IEnMin= 1 EnMin= -1022.24705226506     IErMin= 1 ErrMin= 1.88D-02
 ErrMax= 1.88D-02  0.00D+00 EMaxC= 1.00D-01 BMatC= 8.92D-01 BMatP= 8.92D-01
 IDIUse=3 WtCom= 8.12D-01 WtEn= 1.88D-01
 Coeff-Com:  0.100D+01
 Coeff-En:   0.100D+01
 Coeff:      0.100D+01
 Gap=     0.402 Goal=   None    Shift=    0.000
 GapD=    0.402 DampG=2.000 DampE=0.500 DampFc=1.0000 IDamp=-1.
 RMSDP=2.33D-03 MaxDP=2.06D-01              OVMax= 1.92D-01

 Cycle   2  Pass 0  IDiag  1:
 RMSU=  2.32D-03    CP:  9.63D-01
 E= -1022.38830229463     Delta-E=       -0.141250029562 Rises=F Damp=F
 DIIS: error= 1.78D-02 at cycle   2 NSaved=   2.
 NSaved= 2 IEnMin= 2 EnMin= -1022.38830229463     IErMin= 2 ErrMin= 1.78D-02
 ErrMax= 1.78D-02  0.00D+00 EMaxC= 1.00D-01 BMatC= 6.73D-01 BMatP= 8.92D-01
 IDIUse=3 WtCom= 8.22D-01 WtEn= 1.78D-01
 Coeff-Com:  0.462D+00 0.538D+00
 Coeff-En:   0.442D+00 0.558D+00
 Coeff:      0.458D+00 0.542D+00
 Gap=     0.324 Goal=   None    Shift=    0.000
 RMSDP=1.18D-03 MaxDP=1.38D-01 DE=-1.41D-01 OVMax= 1.15D-01

 Cycle   3  Pass 0  IDiag  1:
 RMSU=  9.20D-04    CP:  9.74D-01  6.85D-01
 E= -1022.96476993502     Delta-E=       -0.576467640397 Rises=F Damp=F
 DIIS: error= 5.65D-03 at cycle   3 NSaved=   3.
 NSaved= 3 IEnMin= 3 EnMin= -1022.96476993502     IErMin= 3 ErrMin= 5.65D-03
 ErrMax= 5.65D-03  0.00D+00 EMaxC= 1.00D-01 BMatC= 4.63D-02 BMatP= 6.73D-01
 IDIUse=3 WtCom= 9.43D-01 WtEn= 5.65D-02
 Coeff-Com:  0.145D+00 0.251D+00 0.603D+00
 Coeff-En:   0.000D+00 0.000D+00 0.100D+01
 Coeff:      0.137D+00 0.237D+00 0.626D+00
 Gap=     0.310 Goal=   None    Shift=    0.000
 RMSDP=3.14D-04 MaxDP=3.81D-02 DE=-5.76D-01 OVMax= 5.36D-02

 Cycle   4  Pass 0  IDiag  1:
 RMSU=  2.90D-04    CP:  9.73D-01  7.21D-01  9.08D-01
 E= -1022.99012023376     Delta-E=       -0.025350298741 Rises=F Damp=F
 DIIS: error= 2.62D-03 at cycle   4 NSaved=   4.
 NSaved= 4 IEnMin= 4 EnMin= -1022.99012023376     IErMin= 4 ErrMin= 2.62D-03
 ErrMax= 2.62D-03  0.00D+00 EMaxC= 1.00D-01 BMatC= 1.15D-02 BMatP= 4.63D-02
 IDIUse=3 WtCom= 9.74D-01 WtEn= 2.62D-02
 Coeff-Com:  0.962D-02 0.542D-01 0.365D+00 0.571D+00
 Coeff-En:   0.000D+00 0.000D+00 0.200D+00 0.800D+00
 Coeff:      0.937D-02 0.528D-01 0.361D+00 0.577D+00
 Gap=     0.306 Goal=   None    Shift=    0.000
 RMSDP=1.33D-04 MaxDP=1.38D-02 DE=-2.54D-02 OVMax= 2.23D-02

 Cycle   5  Pass 0  IDiag  1:
 RMSU=  1.11D-04    CP:  9.70D-01  7.13D-01  9.42D-01  7.93D-01
 E= -1022.99826752344     Delta-E=       -0.008147289671 Rises=F Damp=F
 DIIS: error= 3.55D-04 at cycle   5 NSaved=   5.
 NSaved= 5 IEnMin= 5 EnMin= -1022.99826752344     IErMin= 5 ErrMin= 3.55D-04
 ErrMax= 3.55D-04  0.00D+00 EMaxC= 1.00D-01 BMatC= 3.25D-04 BMatP= 1.15D-02
 IDIUse=3 WtCom= 9.96D-01 WtEn= 3.55D-03
 Coeff-Com: -0.254D-02 0.107D-01 0.122D+00 0.249D+00 0.621D+00
 Coeff-En:   0.000D+00 0.000D+00 0.000D+00 0.000D+00 0.100D+01
 Coeff:     -0.253D-02 0.106D-01 0.122D+00 0.248D+00 0.622D+00
 Gap=     0.305 Goal=   None    Shift=    0.000
 RMSDP=4.60D-05 MaxDP=4.98D-03 DE=-8.15D-03 OVMax= 4.37D-03

 Cycle   6  Pass 0  IDiag  1:
 RMSU=  4.16D-05    CP:  9.71D-01  7.14D-01  9.59D-01  8.32D-01  1.04D+00
 E= -1022.99851355070     Delta-E=       -0.000246027265 Rises=F Damp=F
 DIIS: error= 1.14D-04 at cycle   6 NSaved=   6.
 NSaved= 6 IEnMin= 6 EnMin= -1022.99851355070     IErMin= 6 ErrMin= 1.14D-04
 ErrMax= 1.14D-04  0.00D+00 EMaxC= 1.00D-01 BMatC= 4.13D-05 BMatP= 3.25D-04
 IDIUse=3 WtCom= 9.99D-01 WtEn= 1.14D-03
 Coeff-Com: -0.203D-02-0.428D-03 0.205D-01 0.577D-01 0.303D+00 0.621D+00
 Coeff-En:   0.000D+00 0.000D+00 0.000D+00 0.000D+00 0.000D+00 0.100D+01
 Coeff:     -0.203D-02-0.428D-03 0.205D-01 0.577D-01 0.303D+00 0.622D+00
 Gap=     0.305 Goal=   None    Shift=    0.000
 RMSDP=5.26D-05 MaxDP=5.03D-03 DE=-2.46D-04 OVMax= 1.13D-03

 Cycle   7  Pass 0  IDiag  1:
 RMSU=  3.77D-05    CP:  9.71D-01  7.20D-01  9.70D-01  8.47D-01  1.18D+00
                    CP:  1.66D+00
 E= -1022.99855209980     Delta-E=       -0.000038549098 Rises=F Damp=F
 DIIS: error= 3.41D-05 at cycle   7 NSaved=   7.
 NSaved= 7 IEnMin= 7 EnMin= -1022.99855209980     IErMin= 7 ErrMin= 3.41D-05
 ErrMax= 3.41D-05  0.00D+00 EMaxC= 1.00D-01 BMatC= 2.60D-06 BMatP= 4.13D-05
 IDIUse=1 WtCom= 1.00D+00 WtEn= 0.00D+00
 Coeff-Com: -0.459D-03-0.128D-02-0.367D-02-0.398D-02 0.568D-01 0.221D+00
 Coeff-Com:  0.731D+00
 Coeff:     -0.459D-03-0.128D-02-0.367D-02-0.398D-02 0.568D-01 0.221D+00
 Coeff:      0.731D+00
 Gap=     0.305 Goal=   None    Shift=    0.000
 RMSDP=6.06D-05 MaxDP=6.18D-03 DE=-3.85D-05 OVMax= 4.14D-04

 Cycle   8  Pass 0  IDiag  1:
 RMSU=  2.77D-05    CP:  9.72D-01  7.27D-01  9.80D-01  8.56D-01  1.28D+00
                    CP:  2.33D+00  2.08D+00
 E= -1022.99855464554     Delta-E=       -0.000002545744 Rises=F Damp=F
 DIIS: error= 4.59D-05 at cycle   8 NSaved=   8.
 NSaved= 8 IEnMin= 8 EnMin= -1022.99855464554     IErMin= 7 ErrMin= 3.41D-05
 ErrMax= 4.59D-05  0.00D+00 EMaxC= 1.00D-01 BMatC= 8.81D-07 BMatP= 2.60D-06
 IDIUse=1 WtCom= 1.00D+00 WtEn= 0.00D+00
 Coeff-Com: -0.434D-04-0.681D-03-0.379D-02-0.874D-02-0.313D-03 0.475D-01
 Coeff-Com:  0.378D+00 0.588D+00
 Coeff:     -0.434D-04-0.681D-03-0.379D-02-0.874D-02-0.313D-03 0.475D-01
 Coeff:      0.378D+00 0.588D+00
 Gap=     0.305 Goal=   None    Shift=    0.000
 RMSDP=7.81D-05 MaxDP=6.66D-03 DE=-2.55D-06 OVMax= 1.75D-04

 Cycle   9  Pass 0  IDiag  1:
 RMSU=  2.89D-05    CP:  9.73D-01  7.39D-01  9.94D-01  8.77D-01  1.34D+00
                    CP:  2.98D+00  3.00D+00  2.23D+00
 E= -1022.99855420298     Delta-E=        0.000000442562 Rises=F Damp=F
 DIIS: error= 6.22D-05 at cycle   9 NSaved=   9.
 NSaved= 9 IEnMin= 8 EnMin= -1022.99855464554     IErMin= 7 ErrMin= 3.41D-05
 ErrMax= 6.22D-05  0.00D+00 EMaxC= 1.00D-01 BMatC= 7.68D-07 BMatP= 8.81D-07
 IDIUse=1 WtCom= 1.00D+00 WtEn= 0.00D+00
 Coeff-Com: -0.369D-04-0.744D-03-0.428D-02-0.985D-02-0.189D-02 0.496D-01
 Coeff-Com:  0.418D+00 0.667D+00-0.118D+00
 Coeff:     -0.369D-04-0.744D-03-0.428D-02-0.985D-02-0.189D-02 0.496D-01
 Coeff:      0.418D+00 0.667D+00-0.118D+00
 Gap=     0.305 Goal=   None    Shift=    0.000
 RMSDP=1.80D-05 MaxDP=1.53D-03 DE= 4.43D-07 OVMax= 1.58D-05

 Cycle  10  Pass 0  IDiag  1:
 RMSU=  4.67D-06    CP:  9.73D-01  7.36D-01  9.91D-01  8.71D-01  1.34D+00
                    CP:  2.86D+00  3.00D+00  1.91D+00  5.86D-01
 E= -1022.99855642979     Delta-E=       -0.000002226810 Rises=F Damp=F
 DIIS: error= 5.91D-05 at cycle  10 NSaved=  10.
 NSaved=10 IEnMin=10 EnMin= -1022.99855642979     IErMin= 7 ErrMin= 3.41D-05
 ErrMax= 5.91D-05  0.00D+00 EMaxC= 1.00D-01 BMatC= 6.79D-07 BMatP= 7.68D-07
 IDIUse=1 WtCom= 1.00D+00 WtEn= 0.00D+00
 Coeff-Com:  0.110D-04-0.583D-03-0.362D-02-0.910D-02-0.749D-02 0.225D-01
 Coeff-Com:  0.315D+00 0.642D+00-0.247D+01 0.251D+01
 Coeff:      0.110D-04-0.583D-03-0.362D-02-0.910D-02-0.749D-02 0.225D-01
 Coeff:      0.315D+00 0.642D+00-0.247D+01 0.251D+01
 Gap=     0.305 Goal=   None    Shift=    0.000
 RMSDP=4.46D-05 MaxDP=3.22D-03 DE=-2.23D-06 OVMax= 4.00D-05

 Cycle  11  Pass 0  IDiag  1:
 RMSU=  2.67D-05    CP:  9.72D-01  7.31D-01  9.87D-01  8.62D-01  1.35D+00
                    CP:  2.79D+00  2.77D+00  1.26D+00 -2.18D-01  1.50D+00
 E= -1022.99856945586     Delta-E=       -0.000013026073 Rises=F Damp=F
 DIIS: error= 5.06D-05 at cycle  11 NSaved=  11.
 NSaved=11 IEnMin=11 EnMin= -1022.99856945586     IErMin= 7 ErrMin= 3.41D-05
 ErrMax= 5.06D-05  0.00D+00 EMaxC= 1.00D-01 BMatC= 4.00D-07 BMatP= 6.79D-07
 IDIUse=1 WtCom= 1.00D+00 WtEn= 0.00D+00
 Coeff-Com:  0.145D-04-0.286D-03-0.169D-02-0.480D-02-0.484D-02 0.450D-02
 Coeff-Com:  0.139D+00 0.347D+00-0.270D+01 0.222D+01 0.100D+01
 Coeff:      0.145D-04-0.286D-03-0.169D-02-0.480D-02-0.484D-02 0.450D-02
 Coeff:      0.139D+00 0.347D+00-0.270D+01 0.222D+01 0.100D+01
 Gap=     0.305 Goal=   None    Shift=    0.000
 RMSDP=3.41D-05 MaxDP=2.92D-03 DE=-1.30D-05 OVMax= 4.22D-05

 Cycle  12  Pass 0  IDiag  1:
 RMSU=  2.61D-05    CP:  9.72D-01  7.33D-01  9.92D-01  8.64D-01  1.31D+00
                    CP:  2.90D+00  3.00D+00  9.69D-01 -3.69D-01  1.94D+00
                    CP:  1.54D+00
 E= -1022.99857984878     Delta-E=       -0.000010392915 Rises=F Damp=F
 DIIS: error= 4.24D-05 at cycle  12 NSaved=  12.
 NSaved=12 IEnMin=12 EnMin= -1022.99857984878     IErMin= 7 ErrMin= 3.41D-05
 ErrMax= 4.24D-05  0.00D+00 EMaxC= 1.00D-01 BMatC= 3.29D-07 BMatP= 4.00D-07
 IDIUse=1 WtCom= 1.00D+00 WtEn= 0.00D+00
 Coeff-Com:  0.243D-05-0.302D-03-0.173D-02-0.462D-02-0.314D-02 0.108D-01
 Coeff-Com:  0.154D+00 0.339D+00-0.222D+01 0.179D+01 0.544D+00 0.391D+00
 Coeff:      0.243D-05-0.302D-03-0.173D-02-0.462D-02-0.314D-02 0.108D-01
 Coeff:      0.154D+00 0.339D+00-0.222D+01 0.179D+01 0.544D+00 0.391D+00
 Gap=     0.305 Goal=   None    Shift=    0.000
 RMSDP=1.46D-05 MaxDP=1.27D-03 DE=-1.04D-05 OVMax= 1.48D-05

 Cycle  13  Pass 0  IDiag  1:
 RMSU=  9.35D-06    CP:  9.72D-01  7.34D-01  9.94D-01  8.65D-01  1.29D+00
                    CP:  2.84D+00  3.00D+00  1.14D+00 -2.32D-01  1.68D+00
                    CP:  1.56D+00  1.28D+00
 E= -1022.99857448419     Delta-E=        0.000005364585 Rises=F Damp=F
 DIIS: error= 3.44D-05 at cycle  13 NSaved=  13.
 NSaved=13 IEnMin=12 EnMin= -1022.99857984878     IErMin= 7 ErrMin= 3.41D-05
 ErrMax= 3.44D-05  0.00D+00 EMaxC= 1.00D-01 BMatC= 3.15D-07 BMatP= 3.29D-07
 IDIUse=1 WtCom= 1.00D+00 WtEn= 0.00D+00
 Coeff-Com:  0.278D-05-0.309D-03-0.178D-02-0.473D-02-0.326D-02 0.110D-01
 Coeff-Com:  0.157D+00 0.344D+00-0.212D+01 0.173D+01 0.516D+00 0.218D+00
 Coeff-Com:  0.153D+00
 Coeff:      0.278D-05-0.309D-03-0.178D-02-0.473D-02-0.326D-02 0.110D-01
 Coeff:      0.157D+00 0.344D+00-0.212D+01 0.173D+01 0.516D+00 0.218D+00
 Coeff:      0.153D+00
 Gap=     0.305 Goal=   None    Shift=    0.000
 RMSDP=4.61D-06 MaxDP=3.57D-04 DE= 5.36D-06 OVMax= 3.38D-06

 Initial convergence to 1.0D-05 achieved.  Increase integral accuracy.
 Cycle  14  Pass 1  IDiag  1:
 E= -1022.99845784756     Delta-E=        0.000116636629 Rises=F Damp=F
 DIIS: error= 5.10D-04 at cycle   1 NSaved=   1.
 NSaved= 1 IEnMin= 1 EnMin= -1022.99845784756     IErMin= 1 ErrMin= 5.10D-04
 ErrMax= 5.10D-04  0.00D+00 EMaxC= 1.00D-01 BMatC= 8.92D-05 BMatP= 8.92D-05
 IDIUse=3 WtCom= 9.95D-01 WtEn= 5.10D-03
 Coeff-Com:  0.100D+01
 Coeff-En:   0.100D+01
 Coeff:      0.100D+01
 Gap=     0.305 Goal=   None    Shift=    0.000
 RMSDP=4.61D-06 MaxDP=3.57D-04 DE= 1.17D-04 OVMax= 1.05D-03

 Cycle  15  Pass 1  IDiag  1:
 RMSU=  1.35D-03    CP:  9.23D-01
 E= -1022.99850992575     Delta-E=       -0.000052078190 Rises=F Damp=F
 DIIS: error= 1.26D-05 at cycle   2 NSaved=   2.
 NSaved= 2 IEnMin= 2 EnMin= -1022.99850992575     IErMin= 2 ErrMin= 1.26D-05
 ErrMax= 1.26D-05  0.00D+00 EMaxC= 1.00D-01 BMatC= 6.18D-08 BMatP= 8.92D-05
 IDIUse=1 WtCom= 1.00D+00 WtEn= 0.00D+00
 Coeff-Com: -0.151D-01 0.102D+01
 Coeff:     -0.151D-01 0.102D+01
 Gap=     0.305 Goal=   None    Shift=    0.000
 RMSDP=3.17D-05 MaxDP=2.59D-03 DE=-5.21D-05 OVMax= 9.27D-05

 Cycle  16  Pass 1  IDiag  1:
 RMSU=  2.17D-05    CP:  9.22D-01  1.02D+00
 E= -1022.99850996150     Delta-E=       -0.000000035749 Rises=F Damp=F
 DIIS: error= 5.67D-06 at cycle   3 NSaved=   3.
 NSaved= 3 IEnMin= 3 EnMin= -1022.99850996150     IErMin= 3 ErrMin= 5.67D-06
 ErrMax= 5.67D-06  0.00D+00 EMaxC= 1.00D-01 BMatC= 5.32D-08 BMatP= 6.18D-08
 IDIUse=1 WtCom= 1.00D+00 WtEn= 0.00D+00
 Coeff-Com: -0.852D-02 0.544D+00 0.464D+00
 Coeff:     -0.852D-02 0.544D+00 0.464D+00
 Gap=     0.305 Goal=   None    Shift=    0.000
 RMSDP=5.12D-07 MaxDP=3.81D-05 DE=-3.57D-08 OVMax= 4.91D-05

 Cycle  17  Pass 1  IDiag  1:
 RMSU=  3.07D-07    CP:  9.22D-01  1.02D+00  1.01D+00
 E= -1022.99850999819     Delta-E=       -0.000000036685 Rises=F Damp=F
 DIIS: error= 1.56D-06 at cycle   4 NSaved=   4.
 NSaved= 4 IEnMin= 4 EnMin= -1022.99850999819     IErMin= 4 ErrMin= 1.56D-06
 ErrMax= 1.56D-06  0.00D+00 EMaxC= 1.00D-01 BMatC= 2.95D-09 BMatP= 5.32D-08
 IDIUse=1 WtCom= 1.00D+00 WtEn= 0.00D+00
 Coeff-Com: -0.323D-03 0.112D-01 0.182D+00 0.807D+00
 Coeff:     -0.323D-03 0.112D-01 0.182D+00 0.807D+00
 Gap=     0.305 Goal=   None    Shift=    0.000
 RMSDP=4.85D-07 MaxDP=3.96D-05 DE=-3.67D-08 OVMax= 1.73D-05

 Cycle  18  Pass 1  IDiag  1:
 RMSU=  1.78D-07    CP:  9.22D-01  1.02D+00  1.03D+00  1.24D+00
 E= -1022.99851000017     Delta-E=       -0.000000001980 Rises=F Damp=F
 DIIS: error= 4.72D-07 at cycle   5 NSaved=   5.
 NSaved= 5 IEnMin= 5 EnMin= -1022.99851000017     IErMin= 5 ErrMin= 4.72D-07
 ErrMax= 4.72D-07  0.00D+00 EMaxC= 1.00D-01 BMatC= 4.57D-10 BMatP= 2.95D-09
 IDIUse=1 WtCom= 1.00D+00 WtEn= 0.00D+00
 Coeff-Com:  0.310D-03-0.247D-01 0.647D-01 0.424D+00 0.536D+00
 Coeff:      0.310D-03-0.247D-01 0.647D-01 0.424D+00 0.536D+00
 Gap=     0.305 Goal=   None    Shift=    0.000
 RMSDP=5.62D-08 MaxDP=3.61D-06 DE=-1.98D-09 OVMax= 3.09D-06

 Cycle  19  Pass 1  IDiag  1:
 RMSU=  3.42D-08    CP:  9.22D-01  1.02D+00  1.03D+00  1.27D+00  1.07D+00
 E= -1022.99851000058     Delta-E=       -0.000000000413 Rises=F Damp=F
 DIIS: error= 1.24D-07 at cycle   6 NSaved=   6.
 NSaved= 6 IEnMin= 6 EnMin= -1022.99851000058     IErMin= 6 ErrMin= 1.24D-07
 ErrMax= 1.24D-07  0.00D+00 EMaxC= 1.00D-01 BMatC= 2.16D-11 BMatP= 4.57D-10
 IDIUse=1 WtCom= 1.00D+00 WtEn= 0.00D+00
 Coeff-Com:  0.147D-03-0.105D-01 0.742D-02 0.104D+00 0.192D+00 0.707D+00
 Coeff:      0.147D-03-0.105D-01 0.742D-02 0.104D+00 0.192D+00 0.707D+00
 Gap=     0.305 Goal=   None    Shift=    0.000
 RMSDP=1.21D-08 MaxDP=1.28D-06 DE=-4.13D-10 OVMax= 1.55D-06

 Cycle  20  Pass 1  IDiag  1:
 RMSU=  9.95D-09    CP:  9.22D-01  1.02D+00  1.03D+00  1.29D+00  1.09D+00
                    CP:  9.73D-01
 E= -1022.99851000056     Delta-E=        0.000000000019 Rises=F Damp=F
 DIIS: error= 9.30D-08 at cycle   7 NSaved=   7.
 NSaved= 7 IEnMin= 6 EnMin= -1022.99851000058     IErMin= 7 ErrMin= 9.30D-08
 ErrMax= 9.30D-08  0.00D+00 EMaxC= 1.00D-01 BMatC= 7.39D-12 BMatP= 2.16D-11
 IDIUse=1 WtCom= 1.00D+00 WtEn= 0.00D+00
 Coeff-Com: -0.513D-05 0.104D-02-0.150D-01-0.548D-01-0.543D-01 0.361D+00
 Coeff-Com:  0.762D+00
 Coeff:     -0.513D-05 0.104D-02-0.150D-01-0.548D-01-0.543D-01 0.361D+00
 Coeff:      0.762D+00
 Gap=     0.305 Goal=   None    Shift=    0.000
 RMSDP=7.79D-09 MaxDP=8.15D-07 DE= 1.86D-11 OVMax= 9.49D-07

 SCF Done:  E(RM062X) =  -1022.99851000     A.U. after   20 cycles
            NFock= 20  Conv=0.78D-08     -V/T= 2.0060
 KE= 1.016888647479D+03 PE=-6.766175873653D+03 EE= 2.533317947919D+03
 Leave Link  502 at Wed Jan  8 06:41:19 2025, MaxMem=  4026531840 cpu:           22251.3 elap:            1113.7
 (Enter /usr/local/intel/g16/l601.exe)
 Copying SCF densities to generalized density rwf, IOpCl= 0 IROHF=0.

 **********************************************************************

            Population analysis using the SCF Density.

 **********************************************************************

 Orbital symmetries:
       Occupied  (A) (A) (A) (A) (A) (A) (A) (A) (A) (A) (A) (A)
                 (A) (A) (A) (A) (A) (A) (A) (A) (A) (A) (A) (A)
                 (A) (A) (A) (A) (A) (A) (A) (A) (A) (A) (A) (A)
                 (A) (A) (A) (A) (A) (A) (A) (A) (A) (A) (A) (A)
                 (A) (A) (A) (A) (A) (A) (A) (A) (A) (A) (A) (A)
                 (A) (A) (A) (A) (A) (A) (A) (A) (A) (A) (A) (A)
                 (A) (A) (A) (A) (A) (A) (A) (A) (A) (A) (A) (A)
                 (A) (A) (A) (A)
       Virtual   (A) (A) (A) (A) (A) (A) (A) (A) (A) (A) (A) (A)
                 (A) (A) (A) (A) (A) (A) (A) (A) (A) (A) (A) (A)
                 (A) (A) (A) (A) (A) (A) (A) (A) (A) (A) (A) (A)
                 (A) (A) (A) (A) (A) (A) (A) (A) (A) (A) (A) (A)
                 (A) (A) (A) (A) (A) (A) (A) (A) (A) (A) (A) (A)
                 (A) (A) (A) (A) (A) (A) (A) (A) (A) (A) (A) (A)
                 (A) (A) (A) (A) (A) (A) (A) (A) (A) (A) (A) (A)
                 (A) (A) (A) (A) (A) (A) (A) (A) (A) (A) (A) (A)
                 (A) (A) (A) (A) (A) (A) (A) (A) (A) (A) (A) (A)
                 (A) (A) (A) (A) (A) (A) (A) (A) (A) (A) (A) (A)
                 (A) (A) (A) (A) (A) (A) (A) (A) (A) (A) (A) (A)
                 (A) (A) (A) (A) (A) (A) (A) (A) (A) (A) (A) (A)
                 (A) (A) (A) (A) (A) (A) (A) (A) (A) (A) (A) (A)
                 (A) (A) (A) (A) (A) (A) (A) (A) (A) (A) (A) (A)
                 (A) (A) (A) (A) (A) (A) (A) (A) (A) (A) (A) (A)
                 (A) (A) (A) (A) (A) (A) (A) (A) (A) (A) (A) (A)
                 (A) (A) (A) (A) (A) (A) (A) (A) (A) (A) (A) (A)
                 (A) (A) (A) (A) (A) (A) (A) (A) (A) (A) (A) (A)
                 (A) (A) (A) (A) (A) (A) (A) (A) (A) (A) (A) (A)
                 (A) (A) (A) (A) (A) (A) (A) (A) (A) (A) (A) (A)
                 (A) (A) (A) (A) (A) (A) (A) (A) (A) (A) (A) (A)
                 (A) (A) (A) (A) (A) (A) (A) (A) (A) (A) (A) (A)
                 (A) (A) (A) (A) (A) (A) (A) (A) (A) (A) (A) (A)
                 (A) (A) (A) (A) (A) (A) (A) (A) (A) (A) (A) (A)
                 (A) (A) (A) (A) (A) (A) (A) (A) (A) (A) (A) (A)
                 (A) (A) (A) (A) (A) (A) (A) (A) (A) (A) (A) (A)
                 (A) (A) (A) (A) (A) (A) (A) (A) (A) (A) (A) (A)
                 (A) (A) (A) (A) (A) (A) (A) (A) (A) (A) (A) (A)
                 (A) (A) (A) (A) (A) (A) (A) (A) (A) (A) (A) (A)
                 (A) (A) (A) (A) (A) (A) (A) (A) (A) (A) (A) (A)
                 (A) (A) (A) (A) (A) (A) (A) (A) (A) (A) (A) (A)
                 (A) (A) (A) (A) (A) (A) (A) (A) (A) (A) (A) (A)
                 (A) (A) (A) (A) (A) (A) (A) (A) (A) (A) (A) (A)
                 (A) (A) (A) (A) (A) (A) (A) (A) (A) (A) (A) (A)
                 (A) (A) (A) (A) (A) (A) (A) (A) (A) (A) (A) (A)
                 (A) (A) (A) (A) (A) (A) (A) (A) (A) (A) (A) (A)
                 (A) (A) (A) (A) (A) (A) (A) (A) (A) (A) (A) (A)
                 (A) (A) (A) (A) (A) (A) (A) (A) (A) (A) (A) (A)
                 (A) (A) (A) (A) (A) (A) (A) (A) (A) (A) (A) (A)
                 (A) (A) (A) (A) (A) (A) (A) (A) (A) (A) (A) (A)
                 (A) (A) (A) (A) (A) (A) (A) (A) (A) (A) (A) (A)
                 (A) (A) (A) (A) (A) (A) (A) (A) (A) (A) (A) (A)
                 (A) (A) (A) (A) (A) (A) (A) (A) (A) (A) (A) (A)
                 (A) (A) (A) (A) (A) (A) (A) (A) (A) (A) (A) (A)
                 (A) (A) (A) (A) (A) (A) (A) (A) (A) (A) (A) (A)
                 (A) (A) (A) (A) (A) (A) (A) (A) (A) (A) (A) (A)
                 (A) (A) (A) (A) (A) (A) (A) (A) (A) (A) (A) (A)
                 (A) (A) (A) (A) (A) (A) (A) (A) (A) (A) (A) (A)
                 (A) (A) (A) (A) (A) (A) (A) (A) (A) (A) (A) (A)
                 (A) (A) (A) (A) (A) (A) (A) (A) (A) (A) (A) (A)
                 (A) (A) (A) (A) (A) (A) (A) (A) (A) (A) (A) (A)
                 (A) (A) (A) (A) (A) (A) (A) (A) (A) (A) (A) (A)
                 (A) (A) (A) (A) (A) (A) (A) (A) (A) (A) (A) (A)
                 (A) (A) (A) (A) (A) (A) (A) (A) (A) (A) (A) (A)
                 (A) (A) (A) (A) (A) (A) (A) (A) (A) (A) (A) (A)
                 (A) (A) (A) (A) (A) (A) (A) (A) (A) (A) (A) (A)
                 (A) (A) (A) (A) (A) (A) (A) (A) (A) (A) (A) (A)
                 (A) (A) (A) (A) (A) (A) (A) (A) (A) (A) (A) (A)
                 (A) (A) (A) (A) (A) (A) (A) (A) (A) (A) (A) (A)
                 (A) (A) (A) (A) (A) (A) (A) (A) (A) (A) (A) (A)
                 (A) (A) (A) (A) (A) (A) (A) (A) (A) (A) (A) (A)
                 (A) (A) (A) (A) (A) (A) (A) (A) (A) (A) (A) (A)
                 (A) (A) (A) (A) (A) (A) (A) (A) (A) (A) (A) (A)
                 (A) (A) (A) (A) (A) (A) (A) (A) (A) (A) (A) (A)
                 (A) (A) (A) (A) (A) (A) (A) (A) (A) (A) (A) (A)
                 (A) (A) (A) (A) (A) (A) (A) (A) (A) (A) (A) (A)
                 (A) (A) (A) (A) (A) (A) (A) (A) (A) (A) (A) (A)
                 (A) (A) (A) (A) (A) (A) (A)
 The electronic state is 1-A.
 Alpha  occ. eigenvalues --  -19.67488 -19.65984 -19.62461 -14.79312 -10.68175
 Alpha  occ. eigenvalues --  -10.61081 -10.60379 -10.57575 -10.57060 -10.55122
 Alpha  occ. eigenvalues --  -10.54793 -10.54250 -10.54167 -10.54131 -10.54063
 Alpha  occ. eigenvalues --  -10.54016 -10.53422 -10.53142 -10.53076 -10.52075
 Alpha  occ. eigenvalues --  -10.51959 -10.51579 -10.51499  -1.22286  -1.17834
 Alpha  occ. eigenvalues --   -1.13193  -0.98740  -0.95030  -0.91493  -0.88569
 Alpha  occ. eigenvalues --   -0.86567  -0.85216  -0.83564  -0.82984  -0.77794
 Alpha  occ. eigenvalues --   -0.77072  -0.77014  -0.76752  -0.74513  -0.70451
 Alpha  occ. eigenvalues --   -0.68440  -0.67234  -0.65209  -0.64838  -0.61718
 Alpha  occ. eigenvalues --   -0.59724  -0.59216  -0.57128  -0.56249  -0.55804
 Alpha  occ. eigenvalues --   -0.54287  -0.53830  -0.53354  -0.51542  -0.50569
 Alpha  occ. eigenvalues --   -0.50494  -0.49970  -0.49108  -0.48977  -0.48734
 Alpha  occ. eigenvalues --   -0.48147  -0.47226  -0.46991  -0.46098  -0.45772
 Alpha  occ. eigenvalues --   -0.44881  -0.44778  -0.44331  -0.44160  -0.43526
 Alpha  occ. eigenvalues --   -0.43149  -0.42820  -0.42724  -0.42535  -0.41988
 Alpha  occ. eigenvalues --   -0.41103  -0.40282  -0.39634  -0.39266  -0.37991
 Alpha  occ. eigenvalues --   -0.37730  -0.37506  -0.37203  -0.35544  -0.34763
 Alpha  occ. eigenvalues --   -0.30251  -0.29641  -0.28694
 Alpha virt. eigenvalues --    0.01817   0.02041   0.02577   0.05262   0.06271
 Alpha virt. eigenvalues --    0.07160   0.07916   0.09158   0.09467   0.09728
 Alpha virt. eigenvalues --    0.10641   0.10860   0.11205   0.11401   0.12137
 Alpha virt. eigenvalues --    0.12531   0.12896   0.13059   0.13442   0.13725
 Alpha virt. eigenvalues --    0.14309   0.14562   0.14785   0.15147   0.15588
 Alpha virt. eigenvalues --    0.16086   0.16291   0.16868   0.17110   0.17335
 Alpha virt. eigenvalues --    0.17699   0.17878   0.18145   0.18657   0.18746
 Alpha virt. eigenvalues --    0.19169   0.19457   0.19716   0.20022   0.20492
 Alpha virt. eigenvalues --    0.21053   0.21776   0.22335   0.22624   0.22824
 Alpha virt. eigenvalues --    0.23455   0.23747   0.24135   0.24489   0.25003
 Alpha virt. eigenvalues --    0.25445   0.25784   0.26297   0.26697   0.27280
 Alpha virt. eigenvalues --    0.27571   0.27623   0.28666   0.28968   0.29427
 Alpha virt. eigenvalues --    0.30104   0.30519   0.30943   0.31396   0.31626
 Alpha virt. eigenvalues --    0.32420   0.33455   0.33633   0.33920   0.34414
 Alpha virt. eigenvalues --    0.34434   0.34523   0.35353   0.35676   0.36103
 Alpha virt. eigenvalues --    0.36636   0.37316   0.37541   0.38295   0.38405
 Alpha virt. eigenvalues --    0.38739   0.39282   0.39932   0.40247   0.40551
 Alpha virt. eigenvalues --    0.41319   0.41449   0.41867   0.42266   0.42526
 Alpha virt. eigenvalues --    0.42670   0.43395   0.43569   0.44260   0.44686
 Alpha virt. eigenvalues --    0.44899   0.45220   0.45594   0.45771   0.46010
 Alpha virt. eigenvalues --    0.46467   0.46522   0.46794   0.47127   0.47878
 Alpha virt. eigenvalues --    0.48277   0.48391   0.48468   0.48578   0.48875
 Alpha virt. eigenvalues --    0.49122   0.49497   0.49745   0.50529   0.50837
 Alpha virt. eigenvalues --    0.51015   0.51241   0.51561   0.51736   0.52167
 Alpha virt. eigenvalues --    0.52329   0.52609   0.52972   0.53413   0.53683
 Alpha virt. eigenvalues --    0.54459   0.54625   0.55014   0.55774   0.56082
 Alpha virt. eigenvalues --    0.56242   0.56643   0.56874   0.57491   0.58243
 Alpha virt. eigenvalues --    0.58496   0.59079   0.59254   0.60182   0.60483
 Alpha virt. eigenvalues --    0.61281   0.61795   0.62637   0.63455   0.63871
 Alpha virt. eigenvalues --    0.64049   0.64274   0.65069   0.65532   0.66354
 Alpha virt. eigenvalues --    0.66842   0.67747   0.68272   0.68849   0.69412
 Alpha virt. eigenvalues --    0.70244   0.70760   0.71807   0.72307   0.73174
 Alpha virt. eigenvalues --    0.73418   0.74093   0.74536   0.75263   0.75883
 Alpha virt. eigenvalues --    0.76403   0.77921   0.78306   0.78662   0.79291
 Alpha virt. eigenvalues --    0.79794   0.80169   0.81595   0.82159   0.82924
 Alpha virt. eigenvalues --    0.83256   0.84095   0.85158   0.85429   0.86068
 Alpha virt. eigenvalues --    0.86475   0.87182   0.87605   0.88326   0.89326
 Alpha virt. eigenvalues --    0.89375   0.89983   0.91166   0.91935   0.92401
 Alpha virt. eigenvalues --    0.93042   0.93703   0.94122   0.94677   0.95360
 Alpha virt. eigenvalues --    0.95754   0.96478   0.96859   0.97602   0.97762
 Alpha virt. eigenvalues --    0.98454   0.99008   0.99298   0.99979   1.01111
 Alpha virt. eigenvalues --    1.01197   1.01970   1.03330   1.04116   1.04262
 Alpha virt. eigenvalues --    1.04480   1.05191   1.05584   1.07300   1.07443
 Alpha virt. eigenvalues --    1.07934   1.08259   1.08796   1.10175   1.10853
 Alpha virt. eigenvalues --    1.11633   1.12271   1.12381   1.13062   1.13486
 Alpha virt. eigenvalues --    1.14628   1.14832   1.15596   1.15963   1.16549
 Alpha virt. eigenvalues --    1.17726   1.18596   1.18878   1.19744   1.20836
 Alpha virt. eigenvalues --    1.21220   1.21262   1.22293   1.22897   1.23376
 Alpha virt. eigenvalues --    1.24010   1.24783   1.24931   1.25400   1.26312
 Alpha virt. eigenvalues --    1.27237   1.28186   1.28465   1.28975   1.31021
 Alpha virt. eigenvalues --    1.31366   1.31749   1.32294   1.33361   1.34161
 Alpha virt. eigenvalues --    1.34966   1.35401   1.36165   1.36991   1.37521
 Alpha virt. eigenvalues --    1.39611   1.40301   1.41022   1.41644   1.42826
 Alpha virt. eigenvalues --    1.44168   1.45075   1.46679   1.47039   1.49436
 Alpha virt. eigenvalues --    1.50599   1.51125   1.51966   1.52752   1.52843
 Alpha virt. eigenvalues --    1.53578   1.54825   1.55209   1.55657   1.56017
 Alpha virt. eigenvalues --    1.56218   1.57312   1.57366   1.58096   1.58855
 Alpha virt. eigenvalues --    1.59314   1.59996   1.60258   1.61070   1.61376
 Alpha virt. eigenvalues --    1.61911   1.62119   1.62696   1.62744   1.62988
 Alpha virt. eigenvalues --    1.63373   1.63689   1.63979   1.64709   1.65250
 Alpha virt. eigenvalues --    1.65582   1.65944   1.66319   1.66771   1.67082
 Alpha virt. eigenvalues --    1.67288   1.67821   1.68713   1.69117   1.69473
 Alpha virt. eigenvalues --    1.70101   1.70856   1.71264   1.71766   1.72218
 Alpha virt. eigenvalues --    1.72942   1.73544   1.73954   1.74164   1.75730
 Alpha virt. eigenvalues --    1.76061   1.76375   1.76845   1.77892   1.78935
 Alpha virt. eigenvalues --    1.79496   1.80154   1.80864   1.81820   1.82069
 Alpha virt. eigenvalues --    1.82617   1.82749   1.83962   1.84872   1.85155
 Alpha virt. eigenvalues --    1.86640   1.87221   1.87755   1.88505   1.89082
 Alpha virt. eigenvalues --    1.90816   1.91098   1.91931   1.92757   1.93162
 Alpha virt. eigenvalues --    1.93726   1.94454   1.95885   1.96574   1.97352
 Alpha virt. eigenvalues --    1.97904   1.99038   1.99443   2.00592   2.01298
 Alpha virt. eigenvalues --    2.02505   2.03081   2.03364   2.04671   2.05290
 Alpha virt. eigenvalues --    2.05763   2.06235   2.07409   2.08463   2.08761
 Alpha virt. eigenvalues --    2.09083   2.09842   2.10502   2.11173   2.12594
 Alpha virt. eigenvalues --    2.12803   2.12922   2.14490   2.15586   2.15844
 Alpha virt. eigenvalues --    2.16417   2.17406   2.18253   2.18940   2.20029
 Alpha virt. eigenvalues --    2.20559   2.21182   2.21450   2.23552   2.23834
 Alpha virt. eigenvalues --    2.24679   2.25355   2.25833   2.26579   2.27727
 Alpha virt. eigenvalues --    2.29249   2.30049   2.30568   2.31015   2.31383
 Alpha virt. eigenvalues --    2.32457   2.32691   2.33948   2.34068   2.34378
 Alpha virt. eigenvalues --    2.34843   2.35893   2.36259   2.36544   2.36921
 Alpha virt. eigenvalues --    2.37561   2.37917   2.38480   2.38607   2.39832
 Alpha virt. eigenvalues --    2.40465   2.40650   2.40868   2.41781   2.42151
 Alpha virt. eigenvalues --    2.42735   2.43512   2.43602   2.44554   2.44818
 Alpha virt. eigenvalues --    2.45711   2.45855   2.47217   2.47890   2.48784
 Alpha virt. eigenvalues --    2.49276   2.50260   2.50680   2.51963   2.52554
 Alpha virt. eigenvalues --    2.53006   2.54021   2.54254   2.54907   2.55142
 Alpha virt. eigenvalues --    2.55978   2.56172   2.56606   2.57341   2.57467
 Alpha virt. eigenvalues --    2.58345   2.58853   2.58944   2.59679   2.59892
 Alpha virt. eigenvalues --    2.60534   2.61282   2.61571   2.62014   2.62747
 Alpha virt. eigenvalues --    2.63295   2.63676   2.63904   2.64324   2.65059
 Alpha virt. eigenvalues --    2.65175   2.65887   2.66170   2.66880   2.67585
 Alpha virt. eigenvalues --    2.67756   2.68068   2.68429   2.68948   2.69294
 Alpha virt. eigenvalues --    2.70407   2.70569   2.71712   2.71777   2.72894
 Alpha virt. eigenvalues --    2.73240   2.73904   2.74381   2.74699   2.75193
 Alpha virt. eigenvalues --    2.76147   2.76630   2.77590   2.77881   2.79289
 Alpha virt. eigenvalues --    2.79381   2.80037   2.80393   2.81159   2.82029
 Alpha virt. eigenvalues --    2.82319   2.83286   2.84080   2.84486   2.84877
 Alpha virt. eigenvalues --    2.85399   2.86195   2.86666   2.87584   2.88345
 Alpha virt. eigenvalues --    2.88993   2.90275   2.90697   2.91332   2.92412
 Alpha virt. eigenvalues --    2.92505   2.93200   2.93662   2.94841   2.95510
 Alpha virt. eigenvalues --    2.96340   2.97421   2.98297   2.99052   2.99902
 Alpha virt. eigenvalues --    3.00849   3.02713   3.03319   3.04052   3.05072
 Alpha virt. eigenvalues --    3.06064   3.06586   3.07348   3.08386   3.08919
 Alpha virt. eigenvalues --    3.09110   3.09510   3.10878   3.11635   3.12367
 Alpha virt. eigenvalues --    3.12755   3.13341   3.14037   3.14870   3.14920
 Alpha virt. eigenvalues --    3.15407   3.16146   3.16970   3.17160   3.17993
 Alpha virt. eigenvalues --    3.18274   3.18652   3.19773   3.20008   3.20287
 Alpha virt. eigenvalues --    3.20576   3.21419   3.22115   3.22802   3.23252
 Alpha virt. eigenvalues --    3.23515   3.24183   3.24892   3.25538   3.25982
 Alpha virt. eigenvalues --    3.26738   3.26824   3.28230   3.28295   3.28739
 Alpha virt. eigenvalues --    3.29116   3.29363   3.29944   3.30099   3.30851
 Alpha virt. eigenvalues --    3.31663   3.32554   3.33288   3.33789   3.34118
 Alpha virt. eigenvalues --    3.34618   3.34787   3.35818   3.36193   3.36489
 Alpha virt. eigenvalues --    3.37179   3.37321   3.38149   3.38188   3.39000
 Alpha virt. eigenvalues --    3.39055   3.39460   3.40391   3.40428   3.41063
 Alpha virt. eigenvalues --    3.41852   3.42249   3.42669   3.43242   3.43840
 Alpha virt. eigenvalues --    3.44692   3.45109   3.45410   3.46511   3.46924
 Alpha virt. eigenvalues --    3.47544   3.47748   3.48206   3.48465   3.48801
 Alpha virt. eigenvalues --    3.50121   3.50659   3.51826   3.52526   3.53039
 Alpha virt. eigenvalues --    3.53414   3.53615   3.54561   3.55620   3.55919
 Alpha virt. eigenvalues --    3.56288   3.57375   3.58193   3.58538   3.59291
 Alpha virt. eigenvalues --    3.60645   3.61071   3.61324   3.62492   3.63216
 Alpha virt. eigenvalues --    3.64331   3.64620   3.65551   3.66904   3.67878
 Alpha virt. eigenvalues --    3.68360   3.68575   3.69958   3.70656   3.72076
 Alpha virt. eigenvalues --    3.72695   3.73451   3.74561   3.75494   3.75982
 Alpha virt. eigenvalues --    3.76733   3.77372   3.77739   3.78914   3.80087
 Alpha virt. eigenvalues --    3.81791   3.82297   3.83280   3.83550   3.85177
 Alpha virt. eigenvalues --    3.87695   3.88316   3.89402   3.92015   3.94483
 Alpha virt. eigenvalues --    3.94978   3.95828   3.96380   3.97069   3.98229
 Alpha virt. eigenvalues --    3.99018   3.99227   4.00293   4.00777   4.01950
 Alpha virt. eigenvalues --    4.03400   4.04515   4.05836   4.06253   4.07447
 Alpha virt. eigenvalues --    4.08263   4.09838   4.10260   4.11083   4.12071
 Alpha virt. eigenvalues --    4.12595   4.13101   4.14112   4.14361   4.15505
 Alpha virt. eigenvalues --    4.16717   4.18311   4.19647   4.20617   4.20710
 Alpha virt. eigenvalues --    4.21883   4.23982   4.24650   4.25213   4.26031
 Alpha virt. eigenvalues --    4.26248   4.27512   4.29742   4.30331   4.30938
 Alpha virt. eigenvalues --    4.31946   4.33175   4.34043   4.35188   4.36444
 Alpha virt. eigenvalues --    4.37445   4.38036   4.38379   4.39225   4.39374
 Alpha virt. eigenvalues --    4.40179   4.41792   4.42627   4.43170   4.44305
 Alpha virt. eigenvalues --    4.45294   4.47269   4.48499   4.50233   4.50565
 Alpha virt. eigenvalues --    4.51656   4.52603   4.54178   4.54883   4.55393
 Alpha virt. eigenvalues --    4.56941   4.58305   4.59401   4.61743   4.62178
 Alpha virt. eigenvalues --    4.65781   4.67889   4.69130   4.70708   4.72369
 Alpha virt. eigenvalues --    4.72765   4.74952   4.77067   4.79602   4.81055
 Alpha virt. eigenvalues --    4.82826   4.84417   4.86358   4.87997   4.90027
 Alpha virt. eigenvalues --    4.90754   4.92366   4.93158   4.94043   4.97306
 Alpha virt. eigenvalues --    5.01863   5.03015   5.09248   5.15034   5.15684
 Alpha virt. eigenvalues --    5.16655   5.18693   5.21067   5.23555   5.25991
 Alpha virt. eigenvalues --    5.30364   5.32645   5.35354   5.35651   5.40415
 Alpha virt. eigenvalues --    5.42584   5.46757   5.48152   5.51329   5.52750
[...]
 6,-0.00000632,0.00000734,-0.00000742,0.00000091,-0.00000911,0.00000378
 ,0.00001058,0.00001014,-0.00000037,0.00000458,-0.00000671,-0.00000725,
 0.00000131,0.00000017,-0.00001666,-0.00001098,-0.00001125,0.00000542,-
 0.00001626,-0.00001008,0.00000420,0.00001061,0.00001161,-0.00000524,0.
 00000212,0.00000041,-0.00001005,-0.00001112,-0.00000279,0.00000667,0.0
 0000673,-0.00002187,-0.00002805,0.00003503,-0.00000276,0.00000190,0.00
 000571,-0.00001035,0.00001592,-0.00001625,0.00000645,-0.00000933,0.000
 00842,0.00051354,-0.00186380,-0.00323978,0.04824100,-0.02077356,0.0389
 9534,-0.00002035,0.00000629,-0.00000993,0.00007194,-0.00000373,0.00002
 177,0.00006309,-0.00007127,-0.00001077,-0.00006339,0.00002338,0.000009
 30,-0.00008082,0.00001890,0.00000181,0.00005412,0.00007541,0.00000067,
 -0.00000276,-0.00002850,-0.00000947,-0.00005978,0.00017325,0.00001731,
 -0.00004941,-0.00002707,0.00000777,-0.00000900,-0.00002285,-0.00003381
 ,-0.00001135,0.00000880,0.00001155,-0.00001914,0.00000805,0.00001632,0
 .00013656,-0.00001837,0.00010755,-0.00001099,-0.00002932,0.00001461,-0
 .00000752,-0.00002299,-0.00002652,-0.00000768,0.00000107,0.00001705,0.
 00000750,0.00000421,0.00000188,-0.00139682,-0.00061017,0.00021054,-0.0
 0249776,-0.00337212,0.00077527,0.01059041,-0.01966632,0.00962196,-0.08
 119795,0.06656454,-0.03380744,-0.00260362,0.02763586,-0.01305735,-0.00
 568534,0.00023289,-0.00116901,0.00000218,0.00000044,-0.00000005,-0.000
 00274,0.00000786,0.00000313,0.00000099,-0.00000078,0.00000197,-0.00000
 880,0.00000233,-0.00000557,-0.00000977,-0.00000426,0.00000184,-0.00000
 784,-0.00001007,-0.00000058,0.00001181,0.00002491,-0.00000804,-0.00001
 883,-0.00000099,-0.00000224,0.00000965,0.00001385,0.00001124,0.0000014
 6,-0.00000002,0.00000040,0.00000686,0.00000968,0.00000617,0.00000223,-
 0.00000399,-0.00000196,0.00000767,-0.00000080,0.00000024,0.00001084,-0
 .00000274,-0.00002767,0.00000434,-0.00001257,0.00000104,0.00001536,0.0
 0001291,0.00000333,0.00002419,0.00010728,-0.00003733,0.00001025,0.0000
 2716,-0.00002033,-0.00001277,0.00003048,0.00003338,0.00002430,-0.00001
 650,0.00001405,0.00001114,-0.00000316,0.00000411,0.00001188,0.00001572
 ,-0.00001061,-0.00001009,-0.00001710,-0.00000213,0.00000261,0.00000692
 ,-0.00000021,-0.00000033,-0.00000139,-0.00000101,0.00000190,-0.0000041
 9,0.00000098,0.00029675,-0.00104596,0.00045283,0.00081406,0.00076402,0
 .00002189,0.08068949,0.00001237,-0.00000770,0.00000703,-0.00005835,0.0
 0003322,-0.00003035,-0.00006780,0.00003241,0.00001388,0.00006358,-0.00
 001242,-0.00000923,0.00004672,-0.00001409,-0.00000742,-0.00003137,-0.0
 0002631,0.00000594,0.00000071,0.00000835,-0.00000282,0.00010934,-0.000
 04041,-0.00002595,0.00005646,-0.00011477,0.00005052,0.00001864,0.00002
 120,0.00007672,-0.00002702,0.00000933,-0.00001575,-0.00002189,0.000019
 58,-0.00004660,0.00002036,-0.00014822,-0.00052452,-0.00003407,0.000085
 87,-0.00000704,-0.00000195,0.00000864,0.00002596,-0.00000736,0.0000078
 0,0.00003079,-0.00000517,-0.00000418,-0.00001484,-0.00045354,0.0002232
 2,-0.00055653,-0.00405903,0.00010307,0.00322329,0.00845241,-0.01368028
 ,0.00827286,0.06658047,-0.26817705,0.11090942,-0.00061306,-0.00142253,
 0.00196890,0.00093041,0.00275475,0.00225363,-0.00000382,0.00000443,-0.
 00000060,0.00000348,-0.00000434,-0.00000078,-0.00000124,0.00000087,-0.
 00000224,0.00000212,-0.00000215,0.00000386,0.00000601,-0.00000062,-0.0
 0000234,0.00000445,0.00000071,0.00000084,-0.00001163,-0.00000653,0.000
 01329,0.00001064,0.00000137,0.00000215,-0.00000711,-0.00000535,-0.0000
 1146,0.00000417,-0.00000218,-0.00001030,0.00001379,0.00000862,0.000012
 18,0.00000510,0.00000406,-0.00000097,0.00000569,-0.00001214,-0.0000087
 7,0.00000998,-0.00000161,0.00001943,0.00000546,0.00000515,0.00004681,0
 .00001006,-0.00002811,-0.00001444,-0.00002634,0.00003488,-0.00000540,0
 .00000197,-0.00001555,0.00001422,0.00000676,-0.00001842,-0.00001542,-0
 .00000342,0.00000909,-0.00000979,0.00002141,-0.00000896,0.00001668,0.0
 0000550,0.00002225,-0.00001893,-0.00001148,-0.00002381,-0.00001987,-0.
 00000098,0.00000183,-0.00000233,-0.00000055,0.00000548,0.00000369,0.00
 000407,-0.00000217,-0.00000249,0.00040832,-0.00078747,0.00044281,-0.00
 008801,0.00001363,-0.00184946,-0.07160396,0.28142982,-0.00001291,0.000
 00368,-0.00000294,0.00003338,-0.00000069,0.00000638,0.00002663,-0.0000
 0581,0.00000322,-0.00002477,0.00000092,-0.00000150,-0.00002995,-0.0000
 1368,-0.00001180,0.00001966,0.00003248,0.00000141,0.00000222,-0.000011
 89,0.00001050,-0.00001022,0.00008924,-0.00003067,0.00004411,-0.0002144
 7,0.00008246,0.00002222,0.00000618,0.00007994,0.00001125,-0.00000144,-
 0.00001443,-0.00001568,0.00000862,-0.00001861,0.00007476,-0.00035275,-
 0.00107913,-0.00008534,0.00014085,0.00004024,-0.00001333,0.00000918,-0
 .00001612,0.00001065,0.00002487,0.00000764,-0.00000740,-0.00001804,-0.
 00004538,0.00026800,-0.00059119,-0.00061782,0.00118975,0.00315456,0.00
 639948,-0.00335557,0.00615992,-0.00014900,-0.03376874,0.11088446,-0.09
 072028,-0.00011546,0.00418313,0.00104618,-0.00152315,0.00212692,0.0063
 6074,0.00000162,-0.00000201,0.00000110,-0.00000256,0.00000277,0.000000
 44,0.00000372,-0.00000050,-0.00000122,-0.00000404,0.00000321,-0.000005
 58,-0.00000030,-0.00000508,0.00000027,-0.00000446,-0.00000110,-0.00000
 174,0.00000328,0.00000814,-0.00000532,-0.00000925,-0.00000016,0.000000
 31,0.00000354,0.00000925,-0.00000061,-0.00000373,0.00000355,-0.0000051
 9,-0.00000800,-0.00000764,0.00000048,-0.00000152,0.00000652,-0.0000035
 0,-0.00000551,-0.00000037,0.00000250,0.00000812,-0.00000792,-0.0000009
 7,0.00000248,0.00000045,0.00000023,0.00000320,-0.00000190,0.00000132,-
 0.00006680,-0.00003128,0.00001475,-0.00000691,-0.00000762,-0.00001483,
 0.00001015,-0.00000011,0.00002551,0.00000645,-0.00000233,-0.00000175,0
 .00000059,0.00000165,-0.00001306,-0.00000487,-0.00000071,-0.00000480,-
 0.00001163,0.00000254,0.00003020,0.00000050,-0.00000262,0.00000280,-0.
 00000806,0.00001344,-0.00001662,-0.00000135,-0.00000004,0.00000139,-0.
 00019634,0.00033190,-0.00001018,0.00039519,-0.00178640,-0.00314603,0.0
 3694008,-0.12259379,0.08497282,-0.00000234,-0.00000518,0.00000633,-0.0
 0000758,0.00000717,-0.00000521,-0.00005447,0.00017820,0.00001604,0.000
 06144,-0.00006518,-0.00001062,0.00003685,-0.00018462,0.00000992,0.0000
 3674,0.00009309,0.00006946,-0.00002626,0.00008390,-0.00018831,-0.00000
 355,-0.00006722,-0.00000230,0.00003886,-0.00004912,0.00000281,0.000018
 80,0.00001258,0.00001834,-0.00000822,0.00000897,-0.00000237,-0.0000282
 1,0.00000752,-0.00001549,0.00037295,0.00035426,-0.00010585,0.00001488,
 -0.00001781,0.00000424,0.00000565,-0.00001929,0.00001555,-0.00000373,-
 0.00000237,-0.00000215,0.00000366,0.00000477,0.00000834,0.00093217,0.0
 0204640,-0.00146746,-0.00034935,0.00108102,-0.00047097,-0.00506824,0.0
 0211611,-0.00197141,-0.01570940,-0.02254357,0.00879244,-0.19578656,-0.
 13255326,0.04773816,0.00967546,0.00706993,-0.00271246,-0.00000288,-0.0
 0000256,-0.00000222,0.00000222,0.00000111,-0.00000089,0.00000016,0.000
 00056,-0.00000129,-0.00000016,-0.00000269,-0.00000011,0.00000032,-0.00
 001160,-0.00000575,0.00001484,-0.00004357,-0.00000210,-0.00032662,0.00
 010482,0.00010296,0.00006955,-0.00003872,0.00004928,0.00007401,-0.0000
 1752,-0.00003220,0.00000271,-0.00000079,0.00000126,-0.00000010,0.00000
 298,-0.00000020,0.00000478,-0.00000113,0.00000049,-0.00000196,-0.00000
 151,-0.00000051,0.00001076,-0.00001420,0.00001391,-0.00000579,0.000015
 52,0.00000983,0.00000014,-0.00001292,-0.00000477,-0.00000491,0.0001112
 0,-0.00003930,-0.00000320,-0.00000849,0.00000982,-0.00000055,-0.000024
 04,-0.00000796,-0.00000446,0.00001482,-0.00000597,0.00000539,-0.000004
 05,0.00000694,-0.00000073,0.00000843,-0.00000022,-0.00000903,-0.000002
 35,-0.00001904,-0.00000314,-0.00000212,-0.00000132,-0.00000290,-0.0000
 0442,0.00000220,0.00000040,0.00000050,-0.00000168,0.00002426,-0.000058
 04,0.00012368,-0.00090829,-0.00111162,0.00043473,0.00097520,0.00048640
 ,0.00016845,0.20546757,0.00004389,-0.00000987,0.00001218,-0.00014124,0
 .00005185,-0.00005764,-0.00001676,-0.00043174,0.00002273,-0.00000046,0
 .00015563,-0.00000586,0.00005743,0.00037937,-0.00005902,-0.00006214,-0
 .00022710,-0.00003569,0.00005262,-0.00006770,0.00029555,0.00022820,0.0
 0004940,-0.00007812,0.00001568,-0.00018093,0.00003006,0.00007269,0.000
 05300,0.00012409,-0.00003581,0.00000363,-0.00004658,-0.00010797,-0.000
 02350,-0.00005750,-0.00141091,0.00002145,0.00001463,-0.00005313,-0.000
 10795,-0.00016901,-0.00000204,0.00000041,0.00001943,0.00003071,0.00000
 848,0.00001176,0.00002118,0.00003630,0.00008688,0.00233104,-0.00252195
 ,0.00488039,0.00113885,-0.00040056,-0.00004850,0.00149355,0.00228881,0
 .00243540,0.00584975,0.00764270,-0.00160133,-0.13286169,-0.18339396,0.
 05585487,-0.02049547,-0.01373579,0.00623039,-0.00000212,0.00002414,0.0
 0000149,0.00000474,-0.00001524,-0.00000235,-0.00000503,-0.00000307,-0.
 00000424,0.00000515,-0.00000158,0.00001141,0.00002429,0.00001601,0.000
 00617,-0.00000171,0.00007453,-0.00001080,0.00015093,0.00011493,-0.0001
 7843,-0.00011686,0.00002848,-0.00007724,0.00004618,0.00000325,0.000024
 81,0.00000090,-0.00001658,-0.00003275,0.00003160,-0.00000737,0.0000100
 8,0.00000419,0.00001947,-0.00000100,0.00001016,-0.00001677,-0.00001490
 ,0.00001932,-0.00001070,0.00002891,0.00003385,0.00001064,0.00002275,0.
 00001923,-0.00001686,-0.00002319,0.00006644,-0.00037341,0.00013635,0.0
 0002061,0.00001117,0.00001854,-0.00003546,0.00000735,-0.00001002,0.000
 01022,-0.00002501,-0.00000192,-0.00000462,-0.00000616,0.00002873,0.000
 00949,-0.00000296,-0.00001215,0.00001658,-0.00001314,-0.00001786,0.000
 00418,0.00001956,-0.00000843,0.00001901,-0.00002678,0.00002919,0.00001
 106,-0.00001078,-0.00000299,-0.00008000,-0.00020570,-0.00043419,0.0003
 5982,0.00024174,-0.00001938,-0.00037077,-0.00012652,-0.00175117,0.1433
 7810,0.19055736,-0.00001737,0.00000408,0.00000491,0.00007691,-0.000047
 96,0.00003188,-0.00000989,0.00022393,0.00002021,0.00001279,-0.00009190
 ,-0.00001203,-0.00004355,-0.00024430,-0.00002999,0.00009018,0.00022461
 ,0.00000858,0.00005344,-0.00006369,0.00001273,-0.00007729,-0.00011349,
 0.00003650,0.00002041,-0.00000695,-0.00003288,0.00000781,-0.00002870,0
 .00002633,-0.00001786,0.00000106,-0.00001998,-0.00003733,-0.00000539,-
 0.00001279,0.00065388,0.00012207,-0.00000727,0.00003614,0.00008186,0.0
 0009146,-0.00000575,0.00005511,-0.00009664,-0.00001330,0.00000374,-0.0
 0003491,-0.00001964,-0.00002328,-0.00005459,-0.00156266,0.00475830,0.0
 0537758,-0.00055863,-0.00003276,-0.00078873,-0.00170328,0.00239167,0.0
 0617608,-0.00398848,-0.00383846,0.00455142,0.04771351,0.05594079,-0.05
 957762,0.01003929,0.00834442,0.00057703,0.00000104,-0.00001240,-0.0000
 0155,-0.00000198,0.00000551,-0.00000244,0.00000554,-0.00000274,-0.0000
 0418,-0.00000608,0.00000522,-0.00001238,0.00001128,-0.00005617,-0.0000
 0517,0.00000019,-0.00003832,0.00000025,-0.00009489,0.00003089,0.000242
 74,0.00006268,-0.00002630,0.00000646,-0.00008280,0.00005512,-0.0002013
 0,0.00000117,0.00000972,0.00000897,0.00000139,-0.00001128,-0.00000711,
 0.00000338,0.00000200,-0.00000520,0.00000105,-0.00000459,0.00000503,0.
 00003423,-0.00000412,0.00001469,-0.00002792,0.00001015,0.00000595,0.00
 000664,0.00000635,0.00000363,-0.00004926,0.00017431,-0.00020161,-0.000
 00886,0.00000157,-0.00002028,0.00002659,0.00002322,0.00001877,0.000009
 24,-0.00001449,0.00001552,-0.00000491,0.00000448,-0.00002222,-0.000014
 84,-0.00001771,0.00000159,0.00002101,0.00001581,0.00001706,-0.00000653
 ,-0.00001968,0.00000622,-0.00000768,0.00001711,-0.00001679,-0.00000080
 ,0.00000440,0.00000125,0.00011743,-0.00042136,-0.00092850,-0.00024695,
 -0.00012944,0.00019539,0.00055036,-0.00169661,-0.00309717,-0.05106103,
 -0.06358535,0.05104033,-0.00026806,0.00004616,-0.00004530,0.00040541,0
 .00067136,0.00026478,-0.00054858,0.00299896,0.00005860,0.00069126,-0.0
 0089123,-0.00007493,-0.00077626,-0.00075528,0.00000451,-0.00067680,-0.
 00084768,0.00003705,-0.00005772,0.00008339,-0.00010732,-0.00241876,0.0
 0386463,0.00013846,0.00009176,-0.00064191,-0.00000277,-0.00007191,-0.0
 0010501,0.00010032,-0.00001574,0.00001501,-0.00004503,-0.00007069,0.00
 000098,0.00003448,0.00039710,0.00031269,-0.00017893,-0.00019761,-0.000
 26203,0.00025461,0.00031271,-0.00060451,-0.00089351,-0.00002063,-0.000
 01448,0.00000075,0.00009354,0.00003914,0.00004998,-0.01524572,0.005208
 61,-0.00363864,-0.00086181,-0.00325514,0.00101993,0.00066404,-0.000402
 65,0.00028962,0.00151882,0.00066863,-0.00061564,-0.00166829,-0.0001429
 8,-0.00014816,-0.33337750,0.04786380,-0.04353442,0.00000064,-0.0000596
 7,-0.00002298,-0.00001700,0.00008995,0.00001322,0.00002086,-0.00000856
 ,-0.00000514,-0.00005366,-0.00001382,-0.00005901,0.00013173,0.00008944
 ,-0.00002740,0.00015922,0.00009543,0.00001525,0.00017036,-0.00011728,0
 .00017716,0.00002467,0.00003638,0.00002399,0.00013565,-0.00007177,-0.0
 0010395,0.00000091,0.00002323,0.00001296,-0.00000452,0.00000666,0.0000
 0455,0.00001555,0.00000428,-0.00001085,-0.00000773,-0.00000743,0.00000
 117,0.00002639,-0.00011156,-0.00015937,-0.00002661,-0.00000559,0.00001
 330,0.00004190,0.00004742,0.00000957,-0.00003687,0.00013004,-0.0000384
 0,-0.00001926,0.00038430,-0.00017930,-0.00020600,0.00048407,0.00009619
 ,-0.00007817,-0.00006140,-0.00009630,0.00000357,-0.00000363,0.00000584
 ,0.00001945,0.00004013,-0.00001618,-0.00004062,0.00000694,-0.00001321,
 0.00000797,0.00005037,-0.00000169,0.00000019,-0.00002267,0.00001298,-0
 .00001206,0.00001226,-0.00000446,-0.00071167,0.00026243,-0.00017398,-0
 .00003310,0.00009205,0.00002020,-0.00006388,-0.00016773,0.00004786,0.0
 0047284,0.00022255,0.00011198,0.35218069,-0.00024331,0.00006043,-0.000
 10866,0.00126240,-0.00074300,0.00021796,0.00088182,0.00012069,-0.00004
 283,-0.00039178,-0.00015127,0.00004692,-0.00016965,-0.00126576,0.00003
 419,0.00008197,0.00101247,-0.00003109,-0.00014040,0.00022325,-0.000083
 39,0.00237107,-0.00372462,-0.00023244,-0.00099167,-0.00123388,0.000222
 88,0.00008676,-0.00005995,-0.00032955,-0.00000195,0.00003059,0.0001391
 3,-0.00018284,0.00003784,0.00011622,-0.00003092,0.00113378,-0.00157491
 ,-0.00000872,0.00001642,0.00011800,-0.00042867,0.00020431,0.00049522,-
 0.00002061,0.00010652,-0.00004047,-0.00002273,-0.00003754,-0.00003648,
 -0.02215495,0.00832344,-0.00360286,-0.00360101,-0.00188082,0.00362738,
 -0.00044494,-0.00114486,0.00010614,0.00077707,-0.00284129,0.00478588,0
 .02636292,-0.00073182,0.00406624,0.05195157,-0.06377275,0.01561775,0.0
 0002002,-0.00000630,0.00000238,-0.00003025,0.00009668,0.00003395,0.000
 02504,-0.00001034,0.00001286,-0.00017401,0.00006783,-0.00012960,-0.000
 07342,-0.00013423,0.00000344,-0.00009038,-0.00016600,0.00001084,-0.000
 15129,-0.00018579,0.00038060,0.00022888,-0.00010889,0.00001984,-0.0001
 2609,-0.00014456,-0.00031944,0.00001495,-0.00003117,-0.00000984,0.0000
 4680,0.00001784,0.00000112,-0.00000746,-0.00001589,-0.00000781,0.00005
 443,0.00002155,0.00000901,0.00001603,0.00008358,-0.00009669,0.00005965
 ,0.00001062,0.00003404,0.00008059,0.00000488,0.00002754,0.00015507,0.0
 0003406,-0.00009970,0.00012080,-0.00016751,-0.00007007,0.00016026,-0.0
 0006382,-0.00006988,0.00027196,-0.00017491,0.00044776,0.00003992,-0.00
 002396,0.00000095,0.00002808,0.00001169,-0.00002327,0.00001528,-0.0000
 5291,-0.00003820,0.00000661,-0.00000329,0.00000322,0.00000187,0.000001
 25,-0.00004212,0.00002586,-0.00004329,0.00002747,-0.00131772,0.0002440
 1,-0.00016253,0.00005699,-0.00010088,-0.00048271,0.00119576,-0.0001557
 6,0.00020429,-0.00031839,0.00016004,-0.00198006,-0.05527726,0.06715329
 ,-0.00004692,0.00002947,-0.00004046,0.00002187,0.00018171,0.00009961,-
 0.00000751,0.00001340,0.00008174,0.00004720,-0.00002502,0.00004638,-0.
 00010320,0.00013288,-0.00053711,-0.00000957,-0.00006016,-0.00003551,0.
 00001809,-0.00005013,0.00042175,0.00049631,-0.00034067,-0.00007411,-0.
 00005746,-0.00048123,0.00008723,0.00014940,-0.00007475,0.00027831,-0.0
 0002547,0.00000695,-0.00006721,-0.00024698,0.00002988,0.00015852,-0.00
 018026,-0.00169343,-0.00292897,0.00026607,0.00095085,0.00024163,0.0001
 8311,-0.00010466,-0.00096817,-0.00010974,-0.00004499,-0.00002646,-0.00
 016339,-0.00009306,-0.00020845,0.00821619,-0.00166236,0.00528338,0.000
 78191,0.00352174,0.00579800,0.00040980,0.00010333,-0.00084349,-0.00074
 976,0.00516628,0.00536137,-0.01345353,0.00217569,0.00212333,-0.0431573
 1,0.01534925,-0.05064623,0.00000083,0.00000045,0.00000272,-0.00000880,
 0.00001166,0.00000460,0.00001407,-0.00002703,-0.00002347,-0.00004657,0
 .00009709,-0.00007404,0.00008767,0.00000311,-0.00000401,-0.00004064,0.
 00000737,-0.00000858,0.00007499,0.00020904,-0.00012508,-0.00000900,0.0
 0000514,-0.00014492,-0.00007416,-0.00012829,-0.00018943,-0.00001117,-0
 .00000278,-0.00004013,0.00001081,-0.00001351,0.00001301,0.00001653,0.0
 0003654,-0.00001287,-0.00000615,-0.00001288,-0.00000837,0.00006682,-0.
 00003562,-0.00015555,-0.00000519,0.00000920,-0.00003332,0.00006863,0.0
 0010595,-0.00000378,0.00002216,-0.00019680,-0.00000211,-0.00012284,-0.
 00003247,0.00012135,0.00040883,0.00008541,-0.00120142,-0.00040498,0.00
 043918,-0.00040692,0.00001351,0.00000829,-0.00003131,-0.00008232,-0.00
 001538,0.00001518,0.00000899,0.00000680,0.00004949,-0.00001971,-0.0000
 8084,0.00001586,-0.00002104,0.00004580,-0.00005429,0.00000612,0.000017
 50,0.00000583,0.00045696,0.00004460,0.00017119,0.00004369,-0.00052279,
 -0.00100635,-0.00064036,0.00009215,-0.00005601,0.00053595,-0.00198918,
 -0.00330522,0.04737754,-0.02119865,0.04288288\\-0.00000148,-0.00000137
 ,-0.00000207,-0.00000005,0.00000385,0.00001533,-0.00001877,0.00001238,
 -0.00001499,0.00001333,-0.00000590,0.00000430,0.00001004,-0.00001317,0
 .00001138,-0.00000680,0.00000586,-0.00001216,0.00000295,-0.00000057,-0
 .00000014,-0.00000258,0.00000655,-0.00000006,0.00001182,0.00001402,-0.
 00000302,-0.00000843,-0.00001030,0.00000668,0.00000404,0.00000253,-0.0
 0000363,-0.00000116,-0.00000469,-0.00000239,-0.00001849,-0.00000855,0.
 00000199,-0.00000107,0.00000468,0.00000530,-0.00000143,-0.00000036,-0.
 00000609,0.00000048,0.00000125,0.00000096,-0.00000107,0.00000004,-0.00
 000149,0.00001000,0.00000297,0.00000293,0.00000192,-0.00000029,0.00000
 183,0.00000198,0.00000269,-0.00000210,-0.00000115,0.00000067,-0.000000
 53,0.00000113,-0.00000523,0.00000182,-0.00000484,0.00000291,-0.0000046
 9,0.00000045,-0.00000300,-0.00000096,-0.00000037,-0.00000013,0.0000014
 7,-0.00000288,-0.00000126,0.00000004,-0.00000724,0.00000050,0.00000073
 ,0.00000244,-0.00000154,0.00000410,0.00000110,0.00000004,0.00000341,0.
 00000078,-0.00000144,0.00000015,0.00000136,-0.00000112,0.00000038,0.00
 000007,0.00000046,0.00000104,0.00000258,-0.00000398,-0.00000225,-0.000
 00272,-0.00000097,-0.00000055,0.00000062,0.00000132,0.00000089,0.00000
 004,0.00000111,0.00000032,0.00000080,-0.00000012,0.00000223,0.00000153
 ,-0.00000048,-0.00000157,0.00000013,0.00000334,-0.00000115,0.00000273,
 0.00000420,-0.00000095,0.00000061,0.,0.00000065,0.00000126,-0.00000046
 ,0.00000075,0.00000284,-0.00000638,-0.00000004,-0.00000010,-0.00000004
 ,-0.00000135,-0.00000193,0.00000125,-0.00000043,-0.00000114,-0.0000008
 8,-0.00000105,-0.00000046,0.00000037,0.00000153,-0.00000090,0.00000153
 ,-0.00000088,0.00000114,0.00000250,-0.00000115,-0.00000083,0.00000139,
 -0.00000315,0.00000065,-0.00000065,-0.00000007,0.00000222,-0.00000007,
 -0.00000004,0.00000096,-0.00000024,-0.00000072,0.00000393,-0.00000522,
 -0.00000051\\\@
 The archive entry for this job was punched.


 THE UNDERLYING PHYSICAL LAWS NECESSARY FOR THE 
 MATHEMATICAL THEORY OF A LARGE PART OF PHYSICS AND THE
 WHOLE OF CHEMISTRY ARE THUS COMPLETELY KNOWN, AND THE
 DIFFICULTY IS ONLY THAT THE EXACT APPLICATION OF THESE
 LAWS LEADS TO EQUATIONS MUCH TOO COMPLICATED 
 TO BE SOLUBLE.

                                        -- P. A. M. DIRAC, 1929
 Job cpu time:       3 days 15 hours 50 minutes  4.3 seconds.
 Elapsed time:       0 days  4 hours 23 minutes 32.1 seconds.
 File lengths (MBytes):  RWF=   3356 Int=      0 D2E=      0 Chk=     66 Scr=      1
 Normal termination of Gaussian 16 at Wed Jan  8 18:56:48 2025.
